<?xml version="1.0" encoding="UTF-8"?>

<!-- generated on 12/18/21 21:35:43 by Eclipse SUMO sumo Version 1.7.0
<configuration xmlns:xsi="http://www.w3.org/2001/XMLSchema-instance" xsi:noNamespaceSchemaLocation="http://sumo.dlr.de/xsd/sumoConfiguration.xsd">

    <input>
        <net-file value="C:\Users\longs\Desktop\RESCO-main\environments/cologne8/cologne8.net.xml"/>
        <route-files value="C:\Users\longs\Desktop\RESCO-main\environments/cologne8/cologne8.rou.xml"/>
    </input>

    <output>
        <tripinfo-output value="C:\Users\longs\Desktop\RESCO-main\logs\IDQN-tr1-cologne8-0-drqlong-delaydiff_pressure0\tripinfo_2.xml"/>
        <tripinfo-output.write-unfinished value="true"/>
    </output>

    <time>
        <begin value="25200"/>
        <end value="28800"/>
    </time>

    <processing>
        <time-to-teleport value="-1"/>
    </processing>

    <report>
        <no-warnings value="true"/>
        <no-step-log value="true"/>
    </report>

    <traci_server>
        <remote-port value="64154"/>
    </traci_server>

    <random_number>
        <random value="true"/>
    </random_number>

</configuration>
-->

<tripinfos xmlns:xsi="http://www.w3.org/2001/XMLSchema-instance" xsi:noNamespaceSchemaLocation="http://sumo.dlr.de/xsd/tripinfo_file.xsd">
    <tripinfo id="142890_415_0" depart="25218.00" departLane="-23283579#1_0" departPos="4.40" departSpeed="0.00" departDelay="0.00" arrival="25225.00" arrivalLane="23283579#1_0" arrivalPos="22.22" arrivalSpeed="11.38" duration="7.00" routeLength="44.72" waitingTime="0.00" waitingCount="0" stopTime="0.00" timeLoss="3.21" rerouteNo="0" devices="tripinfo_142890_415_0 routing_142890_415_0" vType="pkw" speedFactor="0.86" vaporized=""/>
    <tripinfo id="137312_412_0" depart="25200.00" departLane="-23283579#1_0" departPos="4.40" departSpeed="0.00" departDelay="0.00" arrival="25230.00" arrivalLane="23283436_0" arrivalPos="65.76" arrivalSpeed="16.43" duration="30.00" routeLength="404.67" waitingTime="0.00" waitingCount="0" stopTime="0.00" timeLoss="4.99" rerouteNo="1" devices="tripinfo_137312_412_0 routing_137312_412_0" vType="pkw" speedFactor="1.19" vaporized=""/>
    <tripinfo id="114597_403_0" depart="25201.00" departLane="22917421#3_0" departPos="4.40" departSpeed="0.00" departDelay="0.00" arrival="25252.00" arrivalLane="-186623965#14_1" arrivalPos="159.69" arrivalSpeed="14.23" duration="51.00" routeLength="476.78" waitingTime="6.00" waitingCount="1" stopTime="0.00" timeLoss="15.69" rerouteNo="1" devices="tripinfo_114597_403_0 routing_114597_403_0" vType="pkw" speedFactor="1.11" vaporized=""/>
    <tripinfo id="137959_412_0" depart="25209.00" departLane="-186623965#18_0" departPos="4.40" departSpeed="0.00" departDelay="0.00" arrival="25252.00" arrivalLane="-22917421#4_0" arrivalPos="96.26" arrivalSpeed="6.65" duration="43.00" routeLength="263.02" waitingTime="6.00" waitingCount="1" stopTime="0.00" timeLoss="16.10" rerouteNo="0" devices="tripinfo_137959_412_0 routing_137959_412_0" vType="pkw" speedFactor="0.92" vaporized=""/>
    <tripinfo id="155570_420_0" depart="25200.00" departLane="-28675510#11_0" departPos="4.40" departSpeed="0.00" departDelay="0.00" arrival="25253.00" arrivalLane="28675510#7_0" arrivalPos="257.94" arrivalSpeed="10.48" duration="53.00" routeLength="516.12" waitingTime="0.00" waitingCount="0" stopTime="0.00" timeLoss="5.93" rerouteNo="0" devices="tripinfo_155570_420_0 routing_155570_420_0" vType="pkw" speedFactor="0.80" vaporized=""/>
    <tripinfo id="119181_405_0" depart="25226.00" departLane="186623965#9_0" departPos="4.40" departSpeed="0.00" departDelay="0.00" arrival="25258.00" arrivalLane="42925825#0_0" arrivalPos="254.17" arrivalSpeed="14.68" duration="32.00" routeLength="418.48" waitingTime="0.00" waitingCount="0" stopTime="0.00" timeLoss="5.06" rerouteNo="0" devices="tripinfo_119181_405_0 routing_119181_405_0" vType="pkw" speedFactor="1.14" vaporized=""/>
    <tripinfo id="134603_411_0" depart="25206.00" departLane="-28675510#11_0" departPos="4.40" departSpeed="0.00" departDelay="0.00" arrival="25266.00" arrivalLane="28675510#7_0" arrivalPos="257.94" arrivalSpeed="12.53" duration="60.00" routeLength="516.12" waitingTime="12.00" waitingCount="1" stopTime="0.00" timeLoss="20.89" rerouteNo="0" devices="tripinfo_134603_411_0 routing_134603_411_0" vType="pkw" speedFactor="0.96" vaporized=""/>
    <tripinfo id="140143_414_0" depart="25211.00" departLane="-28675510#11_0" departPos="4.40" departSpeed="0.00" departDelay="1.00" arrival="25268.00" arrivalLane="28675510#7_0" arrivalPos="257.94" arrivalSpeed="14.92" duration="57.00" routeLength="516.12" waitingTime="8.00" waitingCount="1" stopTime="0.00" timeLoss="23.91" rerouteNo="0" devices="tripinfo_140143_414_0 routing_140143_414_0" vType="pkw" speedFactor="1.15" vaporized=""/>
    <tripinfo id="138070_412_0" depart="25229.00" departLane="22917421#3_0" departPos="4.40" departSpeed="0.00" departDelay="0.00" arrival="25270.00" arrivalLane="186623965#17_0" arrivalPos="143.63" arrivalSpeed="13.51" duration="41.00" routeLength="257.42" waitingTime="9.00" waitingCount="1" stopTime="0.00" timeLoss="17.60" rerouteNo="0" devices="tripinfo_138070_412_0 routing_138070_412_0" vType="pkw" speedFactor="1.02" vaporized=""/>
    <tripinfo id="161942_421_0" depart="25233.00" departLane="-42925825#2_0" departPos="4.40" departSpeed="0.00" departDelay="0.00" arrival="25272.00" arrivalLane="42925825#0_0" arrivalPos="254.17" arrivalSpeed="14.23" duration="39.00" routeLength="508.64" waitingTime="0.00" waitingCount="0" stopTime="0.00" timeLoss="4.98" rerouteNo="0" devices="tripinfo_161942_421_0 routing_161942_421_0" vType="pkw" speedFactor="1.08" vaporized=""/>
    <tripinfo id="153496_420_0" depart="25232.00" departLane="22917421#3_0" departPos="4.40" departSpeed="0.00" departDelay="0.00" arrival="25273.00" arrivalLane="186623965#17_0" arrivalPos="143.63" arrivalSpeed="12.43" duration="41.00" routeLength="257.42" waitingTime="8.00" waitingCount="1" stopTime="0.00" timeLoss="15.83" rerouteNo="0" devices="tripinfo_153496_420_0 routing_153496_420_0" vType="pkw" speedFactor="0.94" vaporized=""/>
    <tripinfo id="140525_414_0" depart="25221.00" departLane="186623965#9_0" departPos="4.40" departSpeed="0.00" departDelay="0.00" arrival="25278.00" arrivalLane="186623965#17_0" arrivalPos="143.63" arrivalSpeed="13.51" duration="57.00" routeLength="527.61" waitingTime="9.00" waitingCount="1" stopTime="0.00" timeLoss="19.17" rerouteNo="1" devices="tripinfo_140525_414_0 routing_140525_414_0" vType="pkw" speedFactor="1.01" vaporized=""/>
    <tripinfo id="76230_386_0" depart="25204.00" departLane="-23283579#1_0" departPos="4.40" departSpeed="0.00" departDelay="0.00" arrival="25283.00" arrivalLane="297047309#0_0" arrivalPos="91.17" arrivalSpeed="12.17" duration="79.00" routeLength="656.20" waitingTime="0.00" waitingCount="0" stopTime="0.00" timeLoss="9.10" rerouteNo="1" devices="tripinfo_76230_386_0 routing_76230_386_0" vType="pkw" speedFactor="0.95" vaporized=""/>
    <tripinfo id="141355_415_0" depart="25232.00" departLane="-186623965#18_0" departPos="4.40" departSpeed="0.00" departDelay="0.00" arrival="25284.00" arrivalLane="42925825#0_0" arrivalPos="254.17" arrivalSpeed="13.26" duration="52.00" routeLength="625.62" waitingTime="0.00" waitingCount="0" stopTime="0.00" timeLoss="6.78" rerouteNo="1" devices="tripinfo_141355_415_0 routing_141355_415_0" vType="pkw" speedFactor="1.01" vaporized=""/>
    <tripinfo id="131071_409_0" depart="25236.00" departLane="-186623965#18_0" departPos="4.40" departSpeed="0.00" departDelay="0.00" arrival="25286.00" arrivalLane="42925825#0_0" arrivalPos="254.17" arrivalSpeed="13.38" duration="50.00" routeLength="625.62" waitingTime="0.00" waitingCount="0" stopTime="0.00" timeLoss="5.87" rerouteNo="1" devices="tripinfo_131071_409_0 routing_131071_409_0" vType="pkw" speedFactor="1.03" vaporized=""/>
    <tripinfo id="163799_422_0" depart="25257.00" departLane="-186623965#18_0" departPos="4.40" departSpeed="0.00" departDelay="2.00" arrival="25287.00" arrivalLane="-22917421#4_0" arrivalPos="96.26" arrivalSpeed="9.08" duration="30.00" routeLength="263.02" waitingTime="0.00" waitingCount="0" stopTime="0.00" timeLoss="7.91" rerouteNo="0" devices="tripinfo_163799_422_0 routing_163799_422_0" vType="pkw" speedFactor="1.13" vaporized=""/>
    <tripinfo id="135663_411_0" depart="25217.00" departLane="-28675510#11_0" departPos="4.40" departSpeed="0.00" departDelay="3.00" arrival="25288.00" arrivalLane="28675510#7_0" arrivalPos="257.94" arrivalSpeed="13.75" duration="71.00" routeLength="516.12" waitingTime="14.00" waitingCount="2" stopTime="0.00" timeLoss="32.77" rerouteNo="0" devices="tripinfo_135663_411_0 routing_135663_411_0" vType="pkw" speedFactor="0.99" vaporized=""/>
    <tripinfo id="149045_417_0" depart="25220.00" departLane="-28675510#11_0" departPos="4.40" departSpeed="0.00" departDelay="3.00" arrival="25289.00" arrivalLane="28675510#7_0" arrivalPos="257.94" arrivalSpeed="13.41" duration="69.00" routeLength="516.12" waitingTime="13.00" waitingCount="2" stopTime="0.00" timeLoss="31.98" rerouteNo="0" devices="tripinfo_149045_417_0 routing_149045_417_0" vType="pkw" speedFactor="1.01" vaporized=""/>
    <tripinfo id="133416_410_0" depart="25228.00" departLane="186623965#9_0" departPos="4.40" departSpeed="0.00" departDelay="0.00" arrival="25295.00" arrivalLane="42925825#0_0" arrivalPos="254.17" arrivalSpeed="13.06" duration="67.00" routeLength="418.48" waitingTime="27.00" waitingCount="1" stopTime="0.00" timeLoss="36.50" rerouteNo="0" devices="tripinfo_133416_410_0 routing_133416_410_0" vType="pkw" speedFactor="1.00" vaporized=""/>
    <tripinfo id="111571_401_0" depart="25267.00" departLane="-353069169#0_0" departPos="4.40" departSpeed="0.00" departDelay="0.00" arrival="25295.00" arrivalLane="24487264_0" arrivalPos="166.35" arrivalSpeed="13.64" duration="28.00" routeLength="286.19" waitingTime="0.00" waitingCount="0" stopTime="0.00" timeLoss="5.94" rerouteNo="1" devices="tripinfo_111571_401_0 routing_111571_401_0" vType="pkw" speedFactor="0.99" vaporized=""/>
    <tripinfo id="155353_420_0" depart="25234.00" departLane="22917421#3_0" departPos="4.40" departSpeed="0.00" departDelay="0.00" arrival="25299.00" arrivalLane="186623965#17_0" arrivalPos="143.63" arrivalSpeed="12.37" duration="65.00" routeLength="257.42" waitingTime="25.00" waitingCount="2" stopTime="0.00" timeLoss="40.00" rerouteNo="0" devices="tripinfo_155353_420_0 routing_155353_420_0" vType="pkw" speedFactor="0.96" vaporized=""/>
    <tripinfo id="113370_402_0" depart="25249.00" departLane="186623965#9_0" departPos="4.40" departSpeed="0.00" departDelay="0.00" arrival="25302.00" arrivalLane="42925825#0_0" arrivalPos="254.17" arrivalSpeed="10.65" duration="53.00" routeLength="418.48" waitingTime="6.00" waitingCount="1" stopTime="0.00" timeLoss="15.52" rerouteNo="0" devices="tripinfo_113370_402_0 routing_113370_402_0" vType="pkw" speedFactor="0.82" vaporized=""/>
    <tripinfo id="145282_416_0" depart="25259.00" departLane="186623965#9_0" departPos="4.40" departSpeed="0.00" departDelay="0.00" arrival="25303.00" arrivalLane="42925825#0_0" arrivalPos="254.17" arrivalSpeed="12.73" duration="44.00" routeLength="418.48" waitingTime="0.00" waitingCount="0" stopTime="0.00" timeLoss="14.27" rerouteNo="0" devices="tripinfo_145282_416_0 routing_145282_416_0" vType="pkw" speedFactor="1.02" vaporized=""/>
    <tripinfo id="126900_407_0" depart="25239.00" departLane="-186623965#18_0" departPos="4.40" departSpeed="0.00" departDelay="0.00" arrival="25305.00" arrivalLane="42925825#0_0" arrivalPos="254.17" arrivalSpeed="13.09" duration="66.00" routeLength="625.62" waitingTime="7.00" waitingCount="1" stopTime="0.00" timeLoss="19.78" rerouteNo="1" devices="tripinfo_126900_407_0 routing_126900_407_0" vType="pkw" speedFactor="0.99" vaporized=""/>
    <tripinfo id="121484_406_0" depart="25268.00" departLane="-23283579#1_0" departPos="4.40" departSpeed="0.00" departDelay="0.00" arrival="25305.00" arrivalLane="133081987#3_0" arrivalPos="99.94" arrivalSpeed="14.05" duration="37.00" routeLength="434.85" waitingTime="0.00" waitingCount="0" stopTime="0.00" timeLoss="6.99" rerouteNo="1" devices="tripinfo_121484_406_0 routing_121484_406_0" vType="pkw" speedFactor="1.06" vaporized=""/>
    <tripinfo id="126698_407_0" depart="25241.00" departLane="-186623965#18_0" departPos="4.40" departSpeed="0.00" departDelay="0.00" arrival="25307.00" arrivalLane="42925825#0_0" arrivalPos="254.17" arrivalSpeed="15.31" duration="66.00" routeLength="625.62" waitingTime="4.00" waitingCount="1" stopTime="0.00" timeLoss="25.12" rerouteNo="1" devices="tripinfo_126698_407_0 routing_126698_407_0" vType="pkw" speedFactor="1.13" vaporized=""/>
    <tripinfo id="161216_421_0" depart="25251.00" departLane="-186623965#18_0" departPos="4.40" departSpeed="0.00" departDelay="3.00" arrival="25308.00" arrivalLane="42925825#0_0" arrivalPos="254.17" arrivalSpeed="12.87" duration="57.00" routeLength="625.62" waitingTime="0.00" waitingCount="0" stopTime="0.00" timeLoss="11.01" rerouteNo="1" devices="tripinfo_161216_421_0 routing_161216_421_0" vType="pkw" speedFactor="0.98" vaporized=""/>
    <tripinfo id="159622_421_0" depart="25254.00" departLane="-186623965#18_0" departPos="4.40" departSpeed="0.00" departDelay="3.00" arrival="25310.00" arrivalLane="42925825#0_0" arrivalPos="254.17" arrivalSpeed="14.32" duration="56.00" routeLength="625.62" waitingTime="0.00" waitingCount="0" stopTime="0.00" timeLoss="12.90" rerouteNo="1" devices="tripinfo_159622_421_0 routing_159622_421_0" vType="pkw" speedFactor="1.06" vaporized=""/>
    <tripinfo id="150593_418_0" depart="25297.00" departLane="22959552#0_0" departPos="4.40" departSpeed="0.00" departDelay="0.00" arrival="25310.00" arrivalLane="22959552#0_0" arrivalPos="91.39" arrivalSpeed="7.84" duration="13.00" routeLength="86.99" waitingTime="0.00" waitingCount="0" stopTime="0.00" timeLoss="2.22" rerouteNo="1" devices="tripinfo_150593_418_0 routing_150593_418_0" vType="pkw" speedFactor="0.97" vaporized=""/>
    <tripinfo id="127809_407_0" depart="25257.00" departLane="-23283579#1_0" departPos="4.40" departSpeed="0.00" departDelay="0.00" arrival="25311.00" arrivalLane="23285888#0_0" arrivalPos="109.58" arrivalSpeed="6.94" duration="54.00" routeLength="410.95" waitingTime="0.00" waitingCount="0" stopTime="0.00" timeLoss="8.10" rerouteNo="1" devices="tripinfo_127809_407_0 routing_127809_407_0" vType="pkw" speedFactor="0.98" vaporized=""/>
    <tripinfo id="118788_405_0" depart="25247.00" departLane="22917421#3_0" departPos="4.40" departSpeed="0.00" departDelay="0.00" arrival="25317.00" arrivalLane="186623965#17_0" arrivalPos="143.63" arrivalSpeed="15.08" duration="70.00" routeLength="257.42" waitingTime="28.00" waitingCount="3" stopTime="0.00" timeLoss="49.41" rerouteNo="0" devices="tripinfo_118788_405_0 routing_118788_405_0" vType="pkw" speedFactor="1.13" vaporized=""/>
    <tripinfo id="156485_420_0" depart="25205.00" departLane="22959552#0_0" departPos="4.40" departSpeed="0.00" departDelay="0.00" arrival="25320.00" arrivalLane="28675510#7_0" arrivalPos="257.94" arrivalSpeed="12.63" duration="115.00" routeLength="1112.54" waitingTime="0.00" waitingCount="0" stopTime="0.00" timeLoss="9.95" rerouteNo="1" devices="tripinfo_156485_420_0 routing_156485_420_0" vType="pkw" speedFactor="0.98" vaporized=""/>
    <tripinfo id="144617_416_0" depart="25256.00" departLane="22917421#3_0" departPos="4.40" departSpeed="0.00" departDelay="0.00" arrival="25320.00" arrivalLane="186623965#17_0" arrivalPos="143.63" arrivalSpeed="13.29" duration="64.00" routeLength="257.42" waitingTime="25.00" waitingCount="2" stopTime="0.00" timeLoss="40.54" rerouteNo="0" devices="tripinfo_144617_416_0 routing_144617_416_0" vType="pkw" speedFactor="1.01" vaporized=""/>
    <tripinfo id="131243_409_0" depart="25248.00" departLane="-186623965#18_0" departPos="4.40" departSpeed="0.00" departDelay="0.00" arrival="25321.00" arrivalLane="-186623965#14_0" arrivalPos="159.69" arrivalSpeed="11.83" duration="73.00" routeLength="528.65" waitingTime="17.00" waitingCount="1" stopTime="0.00" timeLoss="28.90" rerouteNo="1" devices="tripinfo_131243_409_0 routing_131243_409_0" vType="pkw" speedFactor="0.88" vaporized=""/>
    <tripinfo id="162497_421_0" depart="25273.00" departLane="22917421#3_0" departPos="4.40" departSpeed="0.00" departDelay="0.00" arrival="25321.00" arrivalLane="186623965#17_0" arrivalPos="143.63" arrivalSpeed="14.72" duration="48.00" routeLength="257.42" waitingTime="11.00" waitingCount="2" stopTime="0.00" timeLoss="27.38" rerouteNo="0" devices="tripinfo_162497_421_0 routing_162497_421_0" vType="pkw" speedFactor="1.12" vaporized=""/>
    <tripinfo id="134428_411_0" depart="25237.00" departLane="-28675510#11_0" departPos="4.40" departSpeed="0.00" departDelay="0.00" arrival="25322.00" arrivalLane="28675510#7_0" arrivalPos="257.94" arrivalSpeed="16.06" duration="85.00" routeLength="516.12" waitingTime="18.00" waitingCount="4" stopTime="0.00" timeLoss="54.28" rerouteNo="0" devices="tripinfo_134428_411_0 routing_134428_411_0" vType="pkw" speedFactor="1.25" vaporized=""/>
    <tripinfo id="166162_424_0" depart="25233.00" departLane="22959550#0_0" departPos="4.40" departSpeed="0.00" departDelay="0.00" arrival="25330.00" arrivalLane="28675510#7_0" arrivalPos="257.94" arrivalSpeed="12.29" duration="97.00" routeLength="903.30" waitingTime="0.00" waitingCount="0" stopTime="0.00" timeLoss="9.78" rerouteNo="1" devices="tripinfo_166162_424_0 routing_166162_424_0" vType="pkw" speedFactor="0.97" vaporized=""/>
    <tripinfo id="110248_401_0" depart="25207.00" departLane="-23283579#1_0" departPos="4.40" departSpeed="0.00" departDelay="1.00" arrival="25341.00" arrivalLane="297047309#0_0" arrivalPos="91.17" arrivalSpeed="11.32" duration="134.00" routeLength="656.20" waitingTime="46.00" waitingCount="1" stopTime="0.00" timeLoss="60.36" rerouteNo="1" devices="tripinfo_110248_401_0 routing_110248_401_0" vType="pkw" speedFactor="0.89" vaporized=""/>
    <tripinfo id="91556_392_0" depart="25271.00" departLane="-23283579#1_0" departPos="4.40" departSpeed="0.00" departDelay="1.00" arrival="25341.00" arrivalLane="23840972_0" arrivalPos="97.66" arrivalSpeed="7.15" duration="70.00" routeLength="525.30" waitingTime="8.00" waitingCount="1" stopTime="0.00" timeLoss="20.07" rerouteNo="1" devices="tripinfo_91556_392_0 routing_91556_392_0" vType="pkw" speedFactor="0.93" vaporized=""/>
    <tripinfo id="171184_426_0" depart="25326.00" departLane="133081987#0_0" departPos="4.40" departSpeed="0.00" departDelay="0.00" arrival="25343.00" arrivalLane="23283436_0" arrivalPos="65.76" arrivalSpeed="12.76" duration="17.00" routeLength="154.99" waitingTime="0.00" waitingCount="0" stopTime="0.00" timeLoss="5.72" rerouteNo="0" devices="tripinfo_171184_426_0 routing_171184_426_0" vType="pkw" speedFactor="1.01" vaporized=""/>
    <tripinfo id="145512_416_0" depart="25308.00" departLane="22917421#3_0" departPos="4.40" departSpeed="0.00" departDelay="0.00" arrival="25347.00" arrivalLane="186623965#17_0" arrivalPos="143.63" arrivalSpeed="15.92" duration="39.00" routeLength="257.42" waitingTime="10.00" waitingCount="1" stopTime="0.00" timeLoss="18.17" rerouteNo="0" devices="tripinfo_145512_416_0 routing_145512_416_0" vType="pkw" speedFactor="1.16" vaporized=""/>
    <tripinfo id="152801_419_0" depart="25299.00" departLane="-297047307_0" departPos="4.40" departSpeed="0.00" departDelay="0.00" arrival="25350.00" arrivalLane="297047309#0_0" arrivalPos="91.17" arrivalSpeed="13.29" duration="51.00" routeLength="439.92" waitingTime="7.00" waitingCount="1" stopTime="0.00" timeLoss="19.45" rerouteNo="1" devices="tripinfo_152801_419_0 routing_152801_419_0" vType="pkw" speedFactor="1.03" vaporized=""/>
    <tripinfo id="147744_416_0" depart="25272.00" departLane="-186623965#18_0" departPos="4.40" departSpeed="0.00" departDelay="0.00" arrival="25365.00" arrivalLane="42925825#0_0" arrivalPos="254.17" arrivalSpeed="14.09" duration="93.00" routeLength="625.62" waitingTime="34.00" waitingCount="1" stopTime="0.00" timeLoss="49.31" rerouteNo="1" devices="tripinfo_147744_416_0 routing_147744_416_0" vType="pkw" speedFactor="1.04" vaporized=""/>
    <tripinfo id="158885_421_0" depart="25220.00" departLane="22917421#3_0" departPos="4.40" departSpeed="0.00" departDelay="0.00" arrival="25366.00" arrivalLane="28675510#7_0" arrivalPos="257.94" arrivalSpeed="13.81" duration="146.00" routeLength="937.03" waitingTime="36.00" waitingCount="2" stopTime="0.00" timeLoss="53.19" rerouteNo="1" devices="tripinfo_158885_421_0 routing_158885_421_0" vType="pkw" speedFactor="1.08" vaporized=""/>
    <tripinfo id="144017_416_0" depart="25348.00" departLane="-353069169#0_0" departPos="4.40" departSpeed="0.00" departDelay="0.00" arrival="25367.00" arrivalLane="323416262_0" arrivalPos="87.54" arrivalSpeed="12.82" duration="19.00" routeLength="175.35" waitingTime="0.00" waitingCount="0" stopTime="0.00" timeLoss="5.77" rerouteNo="0" devices="tripinfo_144017_416_0 routing_144017_416_0" vType="pkw" speedFactor="1.00" vaporized=""/>
    <tripinfo id="146152_416_0" depart="25210.00" departLane="25166682#0_0" departPos="4.40" departSpeed="0.00" departDelay="0.00" arrival="25375.00" arrivalLane="28675510#7_0" arrivalPos="257.94" arrivalSpeed="15.91" duration="165.00" routeLength="1219.50" waitingTime="44.00" waitingCount="2" stopTime="0.00" timeLoss="73.11" rerouteNo="1" devices="tripinfo_146152_416_0 routing_146152_416_0" vType="pkw" speedFactor="1.18" vaporized=""/>
    <tripinfo id="162890_422_0" depart="25264.00" departLane="8716807#1_0" departPos="4.40" departSpeed="0.00" departDelay="0.00" arrival="25377.00" arrivalLane="28675510#7_0" arrivalPos="257.94" arrivalSpeed="14.41" duration="113.00" routeLength="973.61" waitingTime="21.00" waitingCount="1" stopTime="0.00" timeLoss="35.91" rerouteNo="1" devices="tripinfo_162890_422_0 routing_162890_422_0" vType="pkw" speedFactor="1.12" vaporized=""/>
    <tripinfo id="166776_424_0" depart="25209.00" departLane="-28675510#11_0" departPos="4.40" departSpeed="0.00" departDelay="1.00" arrival="25378.00" arrivalLane="-186623965#14_0" arrivalPos="159.69" arrivalSpeed="13.83" duration="169.00" routeLength="1202.17" waitingTime="29.00" waitingCount="3" stopTime="0.00" timeLoss="59.94" rerouteNo="1" devices="tripinfo_166776_424_0 routing_166776_424_0" vType="pkw" speedFactor="1.04" vaporized=""/>
    <tripinfo id="174787_427_0" depart="25287.00" departLane="22959550#3_0" departPos="4.40" departSpeed="0.00" departDelay="0.00" arrival="25380.00" arrivalLane="28675510#7_0" arrivalPos="257.94" arrivalSpeed="14.49" duration="93.00" routeLength="757.45" waitingTime="13.00" waitingCount="1" stopTime="0.00" timeLoss="30.15" rerouteNo="1" devices="tripinfo_174787_427_0 routing_174787_427_0" vType="pkw" speedFactor="1.07" vaporized=""/>
    <tripinfo id="140363_414_0" depart="25313.00" departLane="22917421#3_0" departPos="4.40" departSpeed="0.00" departDelay="0.00" arrival="25380.00" arrivalLane="-186623965#14_1" arrivalPos="159.69" arrivalSpeed="13.73" duration="67.00" routeLength="476.78" waitingTime="12.00" waitingCount="2" stopTime="0.00" timeLoss="28.51" rerouteNo="1" devices="tripinfo_140363_414_0 routing_140363_414_0" vType="pkw" speedFactor="1.04" vaporized=""/>
    <tripinfo id="175709_428_0" depart="25324.00" departLane="-186623965#18_0" departPos="4.40" departSpeed="0.00" departDelay="0.00" arrival="25381.00" arrivalLane="-186623965#14_0" arrivalPos="159.69" arrivalSpeed="13.80" duration="57.00" routeLength="528.65" waitingTime="3.00" waitingCount="1" stopTime="0.00" timeLoss="18.31" rerouteNo="1" devices="tripinfo_175709_428_0 routing_175709_428_0" vType="pkw" speedFactor="1.01" vaporized=""/>
    <tripinfo id="124742_406_0" depart="25237.00" departLane="22917421#3_0" departPos="4.40" departSpeed="0.00" departDelay="1.00" arrival="25385.00" arrivalLane="28675493_0" arrivalPos="90.85" arrivalSpeed="12.79" duration="148.00" routeLength="1141.94" waitingTime="25.00" waitingCount="4" stopTime="0.00" timeLoss="60.28" rerouteNo="1" devices="tripinfo_124742_406_0 routing_124742_406_0" vType="pkw" speedFactor="1.00" vaporized=""/>
    <tripinfo id="84611_390_0" depart="25261.00" departLane="-23283579#1_0" departPos="4.40" departSpeed="0.00" departDelay="0.00" arrival="25385.00" arrivalLane="-23648008#0_0" arrivalPos="75.90" arrivalSpeed="14.56" duration="124.00" routeLength="782.02" waitingTime="25.00" waitingCount="3" stopTime="0.00" timeLoss="57.73" rerouteNo="1" devices="tripinfo_84611_390_0 routing_84611_390_0" vType="pkw" speedFactor="1.13" vaporized=""/>
    <tripinfo id="129175_408_0" depart="25255.00" departLane="-23283579#1_0" departPos="4.40" departSpeed="0.00" departDelay="0.00" arrival="25386.00" arrivalLane="323450710#0_0" arrivalPos="95.59" arrivalSpeed="13.75" duration="131.00" routeLength="843.12" waitingTime="29.00" waitingCount="3" stopTime="0.00" timeLoss="54.15" rerouteNo="1" devices="tripinfo_129175_408_0 routing_129175_408_0" vType="pkw" speedFactor="1.04" vaporized=""/>
    <tripinfo id="131237_409_0" depart="25228.00" departLane="-186623965#18_0" departPos="4.40" departSpeed="0.00" departDelay="0.00" arrival="25389.00" arrivalLane="297047309#0_0" arrivalPos="91.17" arrivalSpeed="13.18" duration="161.00" routeLength="1417.37" waitingTime="39.00" waitingCount="2" stopTime="0.00" timeLoss="62.48" rerouteNo="1" devices="tripinfo_131237_409_0 routing_131237_409_0" vType="pkw" speedFactor="1.04" vaporized=""/>
    <tripinfo id="148207_417_0" depart="25320.00" departLane="-186623965#18_0" departPos="4.40" departSpeed="0.00" departDelay="0.00" arrival="25390.00" arrivalLane="42925825#0_0" arrivalPos="254.17" arrivalSpeed="13.38" duration="70.00" routeLength="625.62" waitingTime="9.00" waitingCount="2" stopTime="0.00" timeLoss="23.89" rerouteNo="1" devices="tripinfo_148207_417_0 routing_148207_417_0" vType="pkw" speedFactor="0.99" vaporized=""/>
    <tripinfo id="137686_412_0" depart="25330.00" departLane="-186623965#18_0" departPos="4.40" departSpeed="0.00" departDelay="0.00" arrival="25391.00" arrivalLane="42925825#0_0" arrivalPos="254.17" arrivalSpeed="13.94" duration="61.00" routeLength="625.62" waitingTime="0.00" waitingCount="0" stopTime="0.00" timeLoss="17.20" rerouteNo="1" devices="tripinfo_137686_412_0 routing_137686_412_0" vType="pkw" speedFactor="1.03" vaporized=""/>
    <tripinfo id="120970_405_0" depart="25343.00" departLane="-23283579#1_0" departPos="4.40" departSpeed="0.00" departDelay="0.00" arrival="25394.00" arrivalLane="23283470#5_0" arrivalPos="89.27" arrivalSpeed="6.81" duration="51.00" routeLength="393.04" waitingTime="0.00" waitingCount="0" stopTime="0.00" timeLoss="6.27" rerouteNo="1" devices="tripinfo_120970_405_0 routing_120970_405_0" vType="pkw" speedFactor="0.96" vaporized=""/>
    <tripinfo id="108769_400_0" depart="25356.00" departLane="-186623965#18_0" departPos="4.40" departSpeed="0.00" departDelay="0.00" arrival="25397.00" arrivalLane="-22917421#4_0" arrivalPos="96.26" arrivalSpeed="10.70" duration="41.00" routeLength="263.02" waitingTime="10.00" waitingCount="1" stopTime="0.00" timeLoss="21.73" rerouteNo="0" devices="tripinfo_108769_400_0 routing_108769_400_0" vType="pkw" speedFactor="1.29" vaporized=""/>
    <tripinfo id="96268_394_0" depart="25369.00" departLane="-186623965#18_0" departPos="4.40" departSpeed="0.00" departDelay="0.00" arrival="25404.00" arrivalLane="-22917421#4_0" arrivalPos="96.26" arrivalSpeed="7.25" duration="35.00" routeLength="263.02" waitingTime="0.00" waitingCount="0" stopTime="0.00" timeLoss="7.49" rerouteNo="0" devices="tripinfo_96268_394_0 routing_96268_394_0" vType="pkw" speedFactor="0.89" vaporized=""/>
    <tripinfo id="166783_424_0" depart="25349.00" departLane="22917421#3_0" departPos="4.40" departSpeed="0.00" departDelay="0.00" arrival="25409.00" arrivalLane="186623965#17_0" arrivalPos="143.63" arrivalSpeed="13.72" duration="60.00" routeLength="257.42" waitingTime="31.00" waitingCount="1" stopTime="0.00" timeLoss="36.60" rerouteNo="0" devices="tripinfo_166783_424_0 routing_166783_424_0" vType="pkw" speedFactor="1.01" vaporized=""/>
    <tripinfo id="174717_427_0" depart="25373.00" departLane="22917421#3_0" departPos="4.40" departSpeed="0.00" departDelay="0.00" arrival="25412.00" arrivalLane="186623965#17_0" arrivalPos="143.63" arrivalSpeed="12.53" duration="39.00" routeLength="257.42" waitingTime="5.00" waitingCount="1" stopTime="0.00" timeLoss="13.68" rerouteNo="0" devices="tripinfo_174717_427_0 routing_174717_427_0" vType="pkw" speedFactor="0.92" vaporized=""/>
    <tripinfo id="142307_415_0" depart="25376.00" departLane="22917421#3_0" departPos="4.40" departSpeed="0.00" departDelay="1.00" arrival="25414.00" arrivalLane="186623965#17_0" arrivalPos="143.63" arrivalSpeed="13.40" duration="38.00" routeLength="257.42" waitingTime="6.00" waitingCount="1" stopTime="0.00" timeLoss="14.33" rerouteNo="0" devices="tripinfo_142307_415_0 routing_142307_415_0" vType="pkw" speedFactor="0.99" vaporized=""/>
    <tripinfo id="157954_421_0" depart="25388.00" departLane="22917421#3_0" departPos="4.40" departSpeed="0.00" departDelay="0.00" arrival="25417.00" arrivalLane="186623965#17_0" arrivalPos="143.63" arrivalSpeed="11.74" duration="29.00" routeLength="257.42" waitingTime="0.00" waitingCount="0" stopTime="0.00" timeLoss="3.84" rerouteNo="0" devices="tripinfo_157954_421_0 routing_157954_421_0" vType="pkw" speedFactor="0.93" vaporized=""/>
    <tripinfo id="139269_413_0" depart="25307.00" departLane="-23283579#1_0" departPos="4.40" departSpeed="0.00" departDelay="0.00" arrival="25419.00" arrivalLane="-297047308_0" arrivalPos="28.52" arrivalSpeed="11.97" duration="112.00" routeLength="517.28" waitingTime="38.00" waitingCount="1" stopTime="0.00" timeLoss="50.09" rerouteNo="1" devices="tripinfo_139269_413_0 routing_139269_413_0" vType="pkw" speedFactor="0.91" vaporized=""/>