<?xml version="1.0" encoding="UTF-8"?>

<!-- generated on 12/10/21 14:06:04 by Eclipse SUMO sumo Version 1.7.0
<configuration xmlns:xsi="http://www.w3.org/2001/XMLSchema-instance" xsi:noNamespaceSchemaLocation="http://sumo.dlr.de/xsd/sumoConfiguration.xsd">

    <input>
        <net-file value="C:\Users\longs\Desktop\RESCO-main\environments\grid4x4\grid4x4.net.xml"/>
        <route-files value="C:\Users\longs\Desktop\RESCO-main\environments\grid4x4\grid4x4_53.rou.xml"/>
    </input>

    <output>
        <tripinfo-output value="C:\Users\longs\Desktop\RESCO-main\logs\STOCHASTIC-tr1-grid4x4-0-mplight-wait\tripinfo_53.xml"/>
        <tripinfo-output.write-unfinished value="true"/>
    </output>

    <processing>
        <time-to-teleport value="-1"/>
    </processing>

    <report>
        <no-warnings value="true"/>
        <no-step-log value="true"/>
    </report>

    <traci_server>
        <remote-port value="59611"/>
    </traci_server>

    <random_number>
        <random value="true"/>
    </random_number>

</configuration>
-->

<tripinfos xmlns:xsi="http://www.w3.org/2001/XMLSchema-instance" xsi:noNamespaceSchemaLocation="http://sumo.dlr.de/xsd/tripinfo_file.xsd">
    <tripinfo id="2" depart="9.00" departLane="bottom1B0_0" departPos="5.10" departSpeed="0.00" departDelay="0.00" arrival="120.00" arrivalLane="D0bottom3_0" arrivalPos="286.40" arrivalSpeed="13.89" duration="111.00" routeLength="1161.43" waitingTime="11.00" waitingCount="2" stopTime="0.00" timeLoss="32.12" rerouteNo="0" devices="tripinfo_2" vType="DEFAULT_VEHTYPE" speedFactor="1.08" vaporized=""/>
    <tripinfo id="12" depart="56.00" departLane="top3D3_0" departPos="5.10" departSpeed="0.00" departDelay="0.00" arrival="139.00" arrivalLane="C3top2_0" arrivalPos="286.40" arrivalSpeed="13.17" duration="83.00" routeLength="858.56" waitingTime="1.00" waitingCount="1" stopTime="0.00" timeLoss="16.87" rerouteNo="0" devices="tripinfo_12" vType="DEFAULT_VEHTYPE" speedFactor="0.95" vaporized=""/>
    <tripinfo id="18" depart="80.00" departLane="right1D1_0" departPos="5.10" departSpeed="0.00" departDelay="0.00" arrival="155.00" arrivalLane="D2right2_0" arrivalPos="286.40" arrivalSpeed="16.44" duration="75.00" routeLength="858.56" waitingTime="2.00" waitingCount="2" stopTime="0.00" timeLoss="21.02" rerouteNo="0" devices="tripinfo_18" vType="DEFAULT_VEHTYPE" speedFactor="1.18" vaporized=""/>
    <tripinfo id="1" depart="9.00" departLane="left0A0_0" departPos="5.10" departSpeed="0.00" departDelay="0.00" arrival="169.00" arrivalLane="A1left1_0" arrivalPos="286.40" arrivalSpeed="13.24" duration="160.00" routeLength="894.86" waitingTime="77.00" waitingCount="2" stopTime="0.00" timeLoss="94.03" rerouteNo="0" devices="tripinfo_1" vType="DEFAULT_VEHTYPE" speedFactor="0.99" vaporized=""/>
    <tripinfo id="22" depart="96.00" departLane="bottom2C0_0" departPos="5.10" departSpeed="0.00" departDelay="0.00" arrival="175.00" arrivalLane="D0bottom3_0" arrivalPos="286.40" arrivalSpeed="15.32" duration="79.00" routeLength="858.56" waitingTime="2.00" waitingCount="2" stopTime="0.00" timeLoss="21.83" rerouteNo="0" devices="tripinfo_22" vType="DEFAULT_VEHTYPE" speedFactor="1.10" vaporized=""/>
    <tripinfo id="0" depart="6.00" departLane="right0D0_0" departPos="5.10" departSpeed="0.00" departDelay="0.00" arrival="191.00" arrivalLane="A0left0_0" arrivalPos="286.40" arrivalSpeed="12.95" duration="185.00" routeLength="1495.58" waitingTime="45.00" waitingCount="3" stopTime="0.00" timeLoss="70.61" rerouteNo="0" devices="tripinfo_0" vType="DEFAULT_VEHTYPE" speedFactor="0.95" vaporized=""/>
    <tripinfo id="21" depart="86.00" departLane="right1D1_0" departPos="5.10" departSpeed="0.00" departDelay="0.00" arrival="191.00" arrivalLane="C0bottom2_0" arrivalPos="286.40" arrivalSpeed="14.17" duration="105.00" routeLength="1195.18" waitingTime="3.00" waitingCount="1" stopTime="0.00" timeLoss="19.86" rerouteNo="0" devices="tripinfo_21" vType="DEFAULT_VEHTYPE" speedFactor="1.02" vaporized=""/>
    <tripinfo id="29" depart="130.00" departLane="left2A2_0" departPos="5.10" departSpeed="0.00" departDelay="0.00" arrival="206.00" arrivalLane="A1left1_0" arrivalPos="286.40" arrivalSpeed="14.69" duration="76.00" routeLength="858.56" waitingTime="2.00" waitingCount="2" stopTime="0.00" timeLoss="17.60" rerouteNo="0" devices="tripinfo_29" vType="DEFAULT_VEHTYPE" speedFactor="1.09" vaporized=""/>
    <tripinfo id="9" depart="33.00" departLane="top1B3_0" departPos="5.10" departSpeed="0.00" departDelay="0.00" arrival="220.00" arrivalLane="D3right3_0" arrivalPos="286.40" arrivalSpeed="12.99" duration="187.00" routeLength="1195.18" waitingTime="78.00" waitingCount="2" stopTime="0.00" timeLoss="95.98" rerouteNo="0" devices="tripinfo_9" vType="DEFAULT_VEHTYPE" speedFactor="0.95" vaporized=""/>
    <tripinfo id="7" depart="26.00" departLane="left1A1_0" departPos="5.10" departSpeed="0.00" departDelay="0.00" arrival="229.00" arrivalLane="A3left3_0" arrivalPos="286.40" arrivalSpeed="14.44" duration="203.00" routeLength="1197.66" waitingTime="96.00" waitingCount="3" stopTime="0.00" timeLoss="119.74" rerouteNo="0" devices="tripinfo_7" vType="DEFAULT_VEHTYPE" speedFactor="1.06" vaporized=""/>
    <tripinfo id="3" depart="16.00" departLane="top2C3_0" departPos="5.10" departSpeed="0.00" departDelay="0.00" arrival="232.00" arrivalLane="A1left1_0" arrivalPos="286.40" arrivalSpeed="11.32" duration="216.00" routeLength="1780.11" waitingTime="48.00" waitingCount="2" stopTime="0.00" timeLoss="68.72" rerouteNo="0" devices="tripinfo_3" vType="DEFAULT_VEHTYPE" speedFactor="0.87" vaporized=""/>
    <tripinfo id="40" depart="179.00" departLane="top0A3_0" departPos="5.10" departSpeed="0.00" departDelay="0.00" arrival="233.00" arrivalLane="A3left3_0" arrivalPos="286.40" arrivalSpeed="13.87" duration="54.00" routeLength="576.73" waitingTime="3.00" waitingCount="1" stopTime="0.00" timeLoss="13.92" rerouteNo="0" devices="tripinfo_40" vType="DEFAULT_VEHTYPE" speedFactor="1.05" vaporized=""/>
    <tripinfo id="13" depart="58.00" departLane="bottom0A0_0" departPos="5.10" departSpeed="0.00" departDelay="0.00" arrival="242.00" arrivalLane="A0bottom0_0" arrivalPos="286.40" arrivalSpeed="12.67" duration="184.00" routeLength="1748.75" waitingTime="13.00" waitingCount="3" stopTime="0.00" timeLoss="45.26" rerouteNo="0" devices="tripinfo_13" vType="DEFAULT_VEHTYPE" speedFactor="0.93" vaporized=""/>
    <tripinfo id="32" depart="147.00" departLane="left3A3_0" departPos="5.10" departSpeed="0.00" departDelay="0.00" arrival="243.00" arrivalLane="A1left1_0" arrivalPos="286.40" arrivalSpeed="15.72" duration="96.00" routeLength="1161.43" waitingTime="2.00" waitingCount="2" stopTime="0.00" timeLoss="22.89" rerouteNo="0" devices="tripinfo_32" vType="DEFAULT_VEHTYPE" speedFactor="1.17" vaporized=""/>
    <tripinfo id="23" depart="106.00" departLane="left2A2_0" departPos="5.10" departSpeed="0.00" departDelay="0.00" arrival="251.00" arrivalLane="A0bottom0_0" arrivalPos="286.40" arrivalSpeed="12.89" duration="145.00" routeLength="1179.77" waitingTime="33.00" waitingCount="2" stopTime="0.00" timeLoss="52.44" rerouteNo="0" devices="tripinfo_23" vType="DEFAULT_VEHTYPE" speedFactor="0.93" vaporized=""/>
    <tripinfo id="8" depart="31.00" departLane="bottom2C0_0" departPos="5.10" departSpeed="0.00" departDelay="0.00" arrival="252.00" arrivalLane="D1right1_0" arrivalPos="286.40" arrivalSpeed="12.26" duration="221.00" routeLength="1179.77" waitingTime="104.00" waitingCount="2" stopTime="0.00" timeLoss="124.67" rerouteNo="0" devices="tripinfo_8" vType="DEFAULT_VEHTYPE" speedFactor="0.89" vaporized=""/>
    <tripinfo id="37" depart="169.00" departLane="top1B3_0" departPos="5.10" departSpeed="0.00" departDelay="0.00" arrival="257.00" arrivalLane="A3left3_0" arrivalPos="286.40" arrivalSpeed="14.23" duration="88.00" routeLength="879.60" waitingTime="11.00" waitingCount="2" stopTime="0.00" timeLoss="28.26" rerouteNo="0" devices="tripinfo_37" vType="DEFAULT_VEHTYPE" speedFactor="1.07" vaporized=""/>
    <tripinfo id="33" depart="149.00" departLane="bottom3D0_0" departPos="5.10" departSpeed="0.00" departDelay="0.00" arrival="258.00" arrivalLane="B0bottom1_0" arrivalPos="286.40" arrivalSpeed="14.01" duration="109.00" routeLength="1197.66" waitingTime="9.00" waitingCount="2" stopTime="0.00" timeLoss="27.58" rerouteNo="0" devices="tripinfo_33" vType="DEFAULT_VEHTYPE" speedFactor="1.08" vaporized=""/>
    <tripinfo id="14" depart="60.00" departLane="right2D2_0" departPos="5.10" departSpeed="0.00" departDelay="0.00" arrival="263.00" arrivalLane="C0bottom2_0" arrivalPos="286.40" arrivalSpeed="11.13" duration="203.00" routeLength="1495.35" waitingTime="51.00" waitingCount="3" stopTime="0.00" timeLoss="79.77" rerouteNo="0" devices="tripinfo_14" vType="DEFAULT_VEHTYPE" speedFactor="0.88" vaporized=""/>
    <tripinfo id="25" depart="111.00" departLane="right3D3_0" departPos="5.10" departSpeed="0.00" departDelay="0.00" arrival="276.00" arrivalLane="B3top1_0" arrivalPos="286.40" arrivalSpeed="13.55" duration="165.00" routeLength="1177.07" waitingTime="59.00" waitingCount="3" stopTime="0.00" timeLoss="82.53" rerouteNo="0" devices="tripinfo_25" vType="DEFAULT_VEHTYPE" speedFactor="1.04" vaporized=""/>
    <tripinfo id="36" depart="163.00" departLane="left2A2_0" departPos="5.10" departSpeed="0.00" departDelay="0.00" arrival="276.00" arrivalLane="A0left0_0" arrivalPos="286.40" arrivalSpeed="16.13" duration="113.00" routeLength="1161.43" waitingTime="25.00" waitingCount="1" stopTime="0.00" timeLoss="40.75" rerouteNo="0" devices="tripinfo_36" vType="DEFAULT_VEHTYPE" speedFactor="1.19" vaporized=""/>
    <tripinfo id="4" depart="21.00" departLane="bottom0A0_0" departPos="5.10" departSpeed="0.00" departDelay="0.00" arrival="279.00" arrivalLane="C3top2_0" arrivalPos="286.40" arrivalSpeed="13.30" duration="258.00" routeLength="2082.76" waitingTime="74.00" waitingCount="5" stopTime="0.00" timeLoss="111.35" rerouteNo="0" devices="tripinfo_4" vType="DEFAULT_VEHTYPE" speedFactor="1.03" vaporized=""/>
    <tripinfo id="28" depart="121.00" departLane="left3A3_0" departPos="5.10" departSpeed="0.00" departDelay="0.00" arrival="282.00" arrivalLane="D3top3_0" arrivalPos="286.40" arrivalSpeed="14.84" duration="161.00" routeLength="1498.06" waitingTime="46.00" waitingCount="1" stopTime="0.00" timeLoss="59.55" rerouteNo="0" devices="tripinfo_28" vType="DEFAULT_VEHTYPE" speedFactor="1.07" vaporized=""/>
    <tripinfo id="15" depart="73.00" departLane="top0A3_0" departPos="5.10" departSpeed="0.00" departDelay="0.00" arrival="283.00" arrivalLane="A0bottom0_0" arrivalPos="286.40" arrivalSpeed="14.16" duration="210.00" routeLength="1495.58" waitingTime="84.00" waitingCount="2" stopTime="0.00" timeLoss="104.32" rerouteNo="0" devices="tripinfo_15" vType="DEFAULT_VEHTYPE" speedFactor="1.02" vaporized=""/>
    <tripinfo id="11" depart="54.00" departLane="bottom3D0_0" departPos="5.10" departSpeed="0.00" departDelay="0.00" arrival="288.00" arrivalLane="A0bottom0_0" arrivalPos="286.40" arrivalSpeed="14.11" duration="234.00" routeLength="1497.83" waitingTime="105.00" waitingCount="3" stopTime="0.00" timeLoss="131.21" rerouteNo="0" devices="tripinfo_11" vType="DEFAULT_VEHTYPE" speedFactor="1.06" vaporized=""/>
    <tripinfo id="43" depart="188.00" departLane="right2D2_0" departPos="5.10" departSpeed="0.00" departDelay="0.00" arrival="288.00" arrivalLane="D3top3_0" arrivalPos="286.40" arrivalSpeed="13.18" duration="100.00" routeLength="879.60" waitingTime="20.00" waitingCount="2" stopTime="0.00" timeLoss="38.26" rerouteNo="0" devices="tripinfo_43" vType="DEFAULT_VEHTYPE" speedFactor="1.04" vaporized=""/>
    <tripinfo id="35" depart="150.00" departLane="bottom1B0_0" departPos="5.10" departSpeed="0.00" departDelay="0.00" arrival="292.00" arrivalLane="A0bottom0_0" arrivalPos="286.40" arrivalSpeed="12.99" duration="142.00" routeLength="894.86" waitingTime="59.00" waitingCount="2" stopTime="0.00" timeLoss="77.37" rerouteNo="0" devices="tripinfo_35" vType="DEFAULT_VEHTYPE" speedFactor="1.02" vaporized=""/>
    <tripinfo id="16" depart="74.00" departLane="right2D2_0" departPos="5.10" departSpeed="0.00" departDelay="0.00" arrival="297.00" arrivalLane="A0left0_0" arrivalPos="286.40" arrivalSpeed="14.98" duration="223.00" routeLength="2080.05" waitingTime="45.00" waitingCount="3" stopTime="0.00" timeLoss="88.56" rerouteNo="0" devices="tripinfo_16" vType="DEFAULT_VEHTYPE" speedFactor="1.13" vaporized=""/>
    <tripinfo id="17" depart="75.00" departLane="top3D3_0" departPos="5.10" departSpeed="0.00" departDelay="0.00" arrival="298.00" arrivalLane="C0bottom2_0" arrivalPos="286.40" arrivalSpeed="12.19" duration="223.00" routeLength="1782.72" waitingTime="48.00" waitingCount="4" stopTime="0.00" timeLoss="76.96" rerouteNo="0" devices="tripinfo_17" vType="DEFAULT_VEHTYPE" speedFactor="0.89" vaporized=""/>
    <tripinfo id="6" depart="25.00" departLane="right1D1_0" departPos="5.10" departSpeed="0.00" departDelay="0.00" arrival="310.00" arrivalLane="A3top0_0" arrivalPos="286.40" arrivalSpeed="13.43" duration="285.00" routeLength="2080.28" waitingTime="96.00" waitingCount="4" stopTime="0.00" timeLoss="129.50" rerouteNo="0" devices="tripinfo_6" vType="DEFAULT_VEHTYPE" speedFactor="0.97" vaporized=""/>
    <tripinfo id="19" depart="82.00" departLane="left0A0_0" departPos="5.10" departSpeed="0.00" departDelay="0.00" arrival="323.00" arrivalLane="D1right1_0" arrivalPos="286.40" arrivalSpeed="11.49" duration="241.00" routeLength="1782.59" waitingTime="72.00" waitingCount="2" stopTime="0.00" timeLoss="97.67" rerouteNo="0" devices="tripinfo_19" vType="DEFAULT_VEHTYPE" speedFactor="0.90" vaporized=""/>
    <tripinfo id="55" depart="247.00" departLane="bottom0A0_0" departPos="5.10" departSpeed="0.00" departDelay="0.00" arrival="326.00" arrivalLane="B0bottom1_0" arrivalPos="286.40" arrivalSpeed="14.33" duration="79.00" routeLength="858.56" waitingTime="2.00" waitingCount="2" stopTime="0.00" timeLoss="17.85" rerouteNo="0" devices="tripinfo_55" vType="DEFAULT_VEHTYPE" speedFactor="1.04" vaporized=""/>
    <tripinfo id="26" depart="111.00" departLane="bottom2C0_0" departPos="5.10" departSpeed="0.00" departDelay="0.00" arrival="331.00" arrivalLane="A0bottom0_0" arrivalPos="286.40" arrivalSpeed="12.46" duration="220.00" routeLength="1197.66" waitingTime="106.00" waitingCount="3" stopTime="0.00" timeLoss="128.23" rerouteNo="0" devices="tripinfo_26" vType="DEFAULT_VEHTYPE" speedFactor="0.96" vaporized=""/>
    <tripinfo id="5" depart="24.00" departLane="right3D3_0" departPos="5.10" departSpeed="0.00" departDelay="0.00" arrival="333.00" arrivalLane="A0left0_0" arrivalPos="286.40" arrivalSpeed="11.69" duration="309.00" routeLength="2380.22" waitingTime="76.00" waitingCount="4" stopTime="0.00" timeLoss="109.53" rerouteNo="0" devices="tripinfo_5" vType="DEFAULT_VEHTYPE" speedFactor="0.87" vaporized=""/>
    <tripinfo id="54" depart="249.00" departLane="right3D3_0" departPos="5.10" departSpeed="0.00" departDelay="3.00" arrival="338.00" arrivalLane="D2right2_0" arrivalPos="286.40" arrivalSpeed="11.67" duration="89.00" routeLength="894.86" waitingTime="5.00" waitingCount="1" stopTime="0.00" timeLoss="16.03" rerouteNo="0" devices="tripinfo_54" vType="DEFAULT_VEHTYPE" speedFactor="0.90" vaporized=""/>
    <tripinfo id="20" depart="85.00" departLane="left1A1_0" departPos="5.10" departSpeed="0.00" departDelay="0.00" arrival="339.00" arrivalLane="D2right2_1" arrivalPos="286.40" arrivalSpeed="14.12" duration="254.00" routeLength="1782.59" waitingTime="95.00" waitingCount="5" stopTime="0.00" timeLoss="131.87" rerouteNo="0" devices="tripinfo_20" vType="DEFAULT_VEHTYPE" speedFactor="1.06" vaporized=""/>
    <tripinfo id="10" depart="46.00" departLane="right0D0_0" departPos="5.10" departSpeed="0.00" departDelay="0.00" arrival="340.00" arrivalLane="A3left3_0" arrivalPos="286.40" arrivalSpeed="13.26" duration="294.00" routeLength="2382.93" waitingTime="83.00" waitingCount="4" stopTime="0.00" timeLoss="117.85" rerouteNo="0" devices="tripinfo_10" vType="DEFAULT_VEHTYPE" speedFactor="0.98" vaporized=""/>
    <tripinfo id="31" depart="143.00" departLane="right1D1_0" departPos="5.10" departSpeed="0.00" departDelay="0.00" arrival="359.00" arrivalLane="A0bottom0_0" arrivalPos="286.40" arrivalSpeed="14.77" duration="216.00" routeLength="1795.52" waitingTime="65.00" waitingCount="3" stopTime="0.00" timeLoss="94.47" rerouteNo="0" devices="tripinfo_31" vType="DEFAULT_VEHTYPE" speedFactor="1.07" vaporized=""/>
    <tripinfo id="45" depart="192.00" departLane="left0A0_0" departPos="5.10" departSpeed="0.00" departDelay="0.00" arrival="359.00" arrivalLane="A2left2_0" arrivalPos="286.40" arrivalSpeed="13.58" duration="167.00" routeLength="1197.66" waitingTime="57.00" waitingCount="3" stopTime="0.00" timeLoss="82.83" rerouteNo="0" devices="tripinfo_45" vType="DEFAULT_VEHTYPE" speedFactor="1.05" vaporized=""/>
    <tripinfo id="50" depart="237.00" departLane="top1B3_0" departPos="5.10" departSpeed="0.00" departDelay="0.00" arrival="366.00" arrivalLane="D3right3_0" arrivalPos="286.40" arrivalSpeed="15.34" duration="129.00" routeLength="1195.18" waitingTime="29.00" waitingCount="3" stopTime="0.00" timeLoss="54.10" rerouteNo="0" devices="tripinfo_50" vType="DEFAULT_VEHTYPE" speedFactor="1.16" vaporized=""/>
    <tripinfo id="58" depart="259.00" departLane="top1B3_0" departPos="5.10" departSpeed="0.00" departDelay="0.00" arrival="369.00" arrivalLane="A3top0_0" arrivalPos="286.40" arrivalSpeed="8.49" duration="110.00" routeLength="858.56" waitingTime="1.00" waitingCount="1" stopTime="0.00" timeLoss="16.26" rerouteNo="0" devices="tripinfo_58" vType="DEFAULT_VEHTYPE" speedFactor="0.68" vaporized=""/>
    <tripinfo id="30" depart="130.00" departLane="left1A1_0" departPos="5.10" departSpeed="0.00" departDelay="0.00" arrival="379.00" arrivalLane="B3top1_1" arrivalPos="286.40" arrivalSpeed="13.99" duration="249.00" routeLength="1495.35" waitingTime="104.00" waitingCount="4" stopTime="0.00" timeLoss="148.80" rerouteNo="0" devices="tripinfo_30" vType="DEFAULT_VEHTYPE" speedFactor="1.08" vaporized=""/>
    <tripinfo id="27" depart="120.00" departLane="left1A1_0" departPos="5.10" departSpeed="0.00" departDelay="0.00" arrival="381.00" arrivalLane="B3top1_0" arrivalPos="286.40" arrivalSpeed="11.43" duration="261.00" routeLength="1495.35" waitingTime="115.00" waitingCount="4" stopTime="0.00" timeLoss="141.76" rerouteNo="0" devices="tripinfo_27" vType="DEFAULT_VEHTYPE" speedFactor="0.91" vaporized=""/>
    <tripinfo id="73" depart="323.00" departLane="right1D1_0" departPos="5.10" departSpeed="0.00" departDelay="0.00" arrival="386.00" arrivalLane="D0right0_0" arrivalPos="286.40" arrivalSpeed="16.00" duration="63.00" routeLength="894.86" waitingTime="0.00" waitingCount="0" stopTime="0.00" timeLoss="7.50" rerouteNo="0" devices="tripinfo_73" vType="DEFAULT_VEHTYPE" speedFactor="1.18" vaporized=""/>
    <tripinfo id="46" depart="207.00" departLane="bottom3D0_0" departPos="5.10" departSpeed="0.00" departDelay="0.00" arrival="389.00" arrivalLane="B0bottom1_0" arrivalPos="286.40" arrivalSpeed="13.39" duration="182.00" routeLength="1197.66" waitingTime="74.00" waitingCount="2" stopTime="0.00" timeLoss="97.57" rerouteNo="0" devices="tripinfo_46" vType="DEFAULT_VEHTYPE" speedFactor="1.03" vaporized=""/>
    <tripinfo id="56" depart="252.00" departLane="right3D3_0" departPos="5.10" departSpeed="0.00" departDelay="0.00" arrival="428.00" arrivalLane="A3top0_0" arrivalPos="286.40" arrivalSpeed="13.26" duration="176.00" routeLength="1477.24" waitingTime="36.00" waitingCount="4" stopTime="0.00" timeLoss="66.26" rerouteNo="0" devices="tripinfo_56" vType="DEFAULT_VEHTYPE" speedFactor="0.97" vaporized=""/>
    <tripinfo id="24" depart="110.00" departLane="bottom1B0_0" departPos="5.10" departSpeed="0.00" departDelay="0.00" arrival="429.00" arrivalLane="C3top2_0" arrivalPos="286.40" arrivalSpeed="13.29" duration="319.00" routeLength="1782.72" waitingTime="170.00" waitingCount="3" stopTime="0.00" timeLoss="194.28" rerouteNo="0" devices="tripinfo_24" vType="DEFAULT_VEHTYPE" speedFactor="1.04" vaporized=""/>
    <tripinfo id="74" depart="324.00" departLane="left2A2_0" departPos="5.10" departSpeed="0.00" departDelay="0.00" arrival="429.00" arrivalLane="A0bottom0_0" arrivalPos="286.40" arrivalSpeed="13.10" duration="105.00" routeLength="1179.77" waitingTime="1.00" waitingCount="1" stopTime="0.00" timeLoss="20.26" rerouteNo="0" devices="tripinfo_74" vType="DEFAULT_VEHTYPE" speedFactor="1.02" vaporized=""/>
    <tripinfo id="42" depart="184.00" departLane="left2A2_0" departPos="5.10" departSpeed="0.00" departDelay="0.00" arrival="436.00" arrivalLane="D3top3_0" arrivalPos="286.40" arrivalSpeed="11.55" duration="252.00" routeLength="1795.52" waitingTime="80.00" waitingCount="3" stopTime="0.00" timeLoss="110.51" rerouteNo="0" devices="tripinfo_42" vType="DEFAULT_VEHTYPE" speedFactor="0.92" vaporized=""/>
    <tripinfo id="66" depart="298.00" departLane="left3A3_0" departPos="5.10" departSpeed="0.00" departDelay="0.00" arrival="440.00" arrivalLane="B3top1_0" arrivalPos="286.40" arrivalSpeed="13.42" duration="142.00" routeLength="897.72" waitingTime="58.00" waitingCount="2" stopTime="0.00" timeLoss="74.85" rerouteNo="0" devices="tripinfo_66" vType="DEFAULT_VEHTYPE" speedFactor="0.97" vaporized=""/>
    <tripinfo id="34" depart="149.00" departLane="right2D2_0" departPos="5.10" departSpeed="0.00" departDelay="0.00" arrival="443.00" arrivalLane="A0left0_0" arrivalPos="286.40" arrivalSpeed="11.38" duration="294.00" routeLength="2080.05" waitingTime="90.00" waitingCount="4" stopTime="0.00" timeLoss="121.95" rerouteNo="0" devices="tripinfo_34" vType="DEFAULT_VEHTYPE" speedFactor="0.88" vaporized=""/>
    <tripinfo id="39" depart="178.00" departLane="left0A0_0" departPos="5.10" departSpeed="0.00" departDelay="0.00" arrival="448.00" arrivalLane="A3top0_0" arrivalPos="286.40" arrivalSpeed="15.45" duration="270.00" routeLength="1495.35" waitingTime="139.00" waitingCount="4" stopTime="0.00" timeLoss="173.32" rerouteNo="0" devices="tripinfo_39" vType="DEFAULT_VEHTYPE" speedFactor="1.13" vaporized=""/>
    <tripinfo id="51" depart="240.00" departLane="right1D1_0" departPos="5.10" departSpeed="0.00" departDelay="0.00" arrival="453.00" arrivalLane="D3right3_0" arrivalPos="286.40" arrivalSpeed="12.11" duration="213.00" routeLength="1161.43" waitingTime="95.00" waitingCount="3" stopTime="0.00" timeLoss="116.97" rerouteNo="0" devices="tripinfo_51" vType="DEFAULT_VEHTYPE" speedFactor="0.89" vaporized=""/>
    <tripinfo id="52" depart="246.00" departLane="left3A3_0" departPos="5.10" departSpeed="0.00" departDelay="0.00" arrival="458.00" arrivalLane="A0left0_0" arrivalPos="286.40" arrivalSpeed="12.51" duration="212.00" routeLength="1461.60" waitingTime="82.00" waitingCount="1" stopTime="0.00" timeLoss="103.47" rerouteNo="0" devices="tripinfo_52" vType="DEFAULT_VEHTYPE" speedFactor="0.99" vaporized=""/>
    <tripinfo id="65" depart="297.00" departLane="bottom2C0_0" departPos="5.10" departSpeed="0.00" departDelay="0.00" arrival="460.00" arrivalLane="A1left1_1" arrivalPos="286.40" arrivalSpeed="12.78" duration="163.00" routeLength="1495.35" waitingTime="20.00" waitingCount="1" stopTime="0.00" timeLoss="54.89" rerouteNo="0" devices="tripinfo_65" vType="DEFAULT_VEHTYPE" speedFactor="1.00" vaporized=""/>
    <tripinfo id="57" depart="252.00" departLane="bottom2C0_0" departPos="5.10" departSpeed="0.00" departDelay="0.00" arrival="461.00" arrivalLane="A1left1_0" arrivalPos="286.40" arrivalSpeed="11.50" duration="209.00" routeLength="1495.35" waitingTime="62.00" waitingCount="2" stopTime="0.00" timeLoss="83.25" rerouteNo="0" devices="tripinfo_57" vType="DEFAULT_VEHTYPE" speedFactor="0.86" vaporized=""/>
    <tripinfo id="48" depart="220.00" departLane="left1A1_0" departPos="5.10" departSpeed="0.00" departDelay="0.00" arrival="472.00" arrivalLane="A3left3_0" arrivalPos="286.40" arrivalSpeed="12.32" duration="252.00" routeLength="1197.66" waitingTime="133.00" waitingCount="3" stopTime="0.00" timeLoss="154.91" rerouteNo="0" devices="tripinfo_48" vType="DEFAULT_VEHTYPE" speedFactor="0.90" vaporized=""/>
    <tripinfo id="82" depart="358.00" departLane="left0A0_0" departPos="5.10" departSpeed="0.00" departDelay="0.00" arrival="474.00" arrivalLane="C0bottom2_0" arrivalPos="286.40" arrivalSpeed="16.03" duration="116.00" routeLength="1177.07" waitingTime="14.00" waitingCount="3" stopTime="0.00" timeLoss="42.82" rerouteNo="0" devices="tripinfo_82" vType="DEFAULT_VEHTYPE" speedFactor="1.17" vaporized=""/>
    <tripinfo id="49" depart="229.00" departLane="bottom0A0_0" departPos="5.10" departSpeed="0.00" departDelay="0.00" arrival="478.00" arrivalLane="D2right2_0" arrivalPos="286.40" arrivalSpeed="14.39" duration="249.00" routeLength="2080.28" waitingTime="82.00" waitingCount="3" stopTime="0.00" timeLoss="109.95" rerouteNo="0" devices="tripinfo_49" vType="DEFAULT_VEHTYPE" speedFactor="1.08" vaporized=""/>
    <tripinfo id="69" depart="303.00" departLane="bottom3D0_0" departPos="5.10" departSpeed="0.00" departDelay="0.00" arrival="478.00" arrivalLane="A0bottom0_1" arrivalPos="286.40" arrivalSpeed="14.91" duration="175.00" routeLength="1497.83" waitingTime="53.00" waitingCount="3" stopTime="0.00" timeLoss="80.93" rerouteNo="0" devices="tripinfo_69" vType="DEFAULT_VEHTYPE" speedFactor="1.16" vaporized=""/>
    <tripinfo id="64" depart="294.00" departLane="bottom0A0_0" departPos="5.10" departSpeed="0.00" departDelay="0.00" arrival="479.00" arrivalLane="A0bottom0_0" arrivalPos="286.40" arrivalSpeed="13.77" duration="185.00" routeLength="1748.75" waitingTime="27.00" waitingCount="4" stopTime="0.00" timeLoss="56.92" rerouteNo="0" devices="tripinfo_64" vType="DEFAULT_VEHTYPE" speedFactor="1.01" vaporized=""/>
    <tripinfo id="44" depart="189.00" departLane="top3D3_0" departPos="5.10" departSpeed="0.00" departDelay="0.00" arrival="480.00" arrivalLane="A0left0_0" arrivalPos="286.40" arrivalSpeed="13.65" duration="291.00" routeLength="2380.45" waitingTime="62.00" waitingCount="5" stopTime="0.00" timeLoss="116.18" rerouteNo="0" devices="tripinfo_44" vType="DEFAULT_VEHTYPE" speedFactor="0.99" vaporized=""/>
    <tripinfo id="83" depart="365.00" departLane="bottom1B0_0" departPos="5.10" departSpeed="0.00" departDelay="0.00" arrival="489.00" arrivalLane="A1left1_0" arrivalPos="286.40" arrivalSpeed="13.82" duration="124.00" routeLength="1195.18" waitingTime="28.00" waitingCount="1" stopTime="0.00" timeLoss="42.24" rerouteNo="0" devices="tripinfo_83" vType="DEFAULT_VEHTYPE" speedFactor="1.06" vaporized=""/>
    <tripinfo id="62" depart="281.00" departLane="top3D3_0" departPos="5.10" departSpeed="0.00" departDelay="0.00" arrival="499.00" arrivalLane="D2right2_0" arrivalPos="286.40" arrivalSpeed="9.44" duration="218.00" routeLength="897.72" waitingTime="111.00" waitingCount="2" stopTime="0.00" timeLoss="128.07" rerouteNo="0" devices="tripinfo_62" vType="DEFAULT_VEHTYPE" speedFactor="0.72" vaporized=""/>
    <tripinfo id="61" depart="276.00" departLane="left2A2_0" departPos="5.10" departSpeed="0.00" departDelay="0.00" arrival="500.00" arrivalLane="D0bottom3_0" arrivalPos="286.40" arrivalSpeed="12.97" duration="224.00" routeLength="2080.28" waitingTime="42.00" waitingCount="4" stopTime="0.00" timeLoss="74.10" rerouteNo="0" devices="tripinfo_61" vType="DEFAULT_VEHTYPE" speedFactor="1.01" vaporized=""/>
    <tripinfo id="38" depart="175.00" departLane="top2C3_0" departPos="5.10" departSpeed="0.00" departDelay="0.00" arrival="501.00" arrivalLane="D0bottom3_1" arrivalPos="286.40" arrivalSpeed="13.67" duration="326.00" routeLength="1782.59" waitingTime="167.00" waitingCount="4" stopTime="0.00" timeLoss="201.48" rerouteNo="0" devices="tripinfo_38" vType="DEFAULT_VEHTYPE" speedFactor="1.04" vaporized=""/>
    <tripinfo id="72" depart="319.00" departLane="left2A2_0" departPos="5.10" departSpeed="0.00" departDelay="0.00" arrival="507.00" arrivalLane="D3top3_0" arrivalPos="286.40" arrivalSpeed="15.56" duration="188.00" routeLength="1795.52" waitingTime="45.00" waitingCount="2" stopTime="0.00" timeLoss="72.63" rerouteNo="0" devices="tripinfo_72" vType="DEFAULT_VEHTYPE" speedFactor="1.13" vaporized=""/>
    <tripinfo id="105" depart="436.00" departLane="left3A3_0" departPos="5.10" departSpeed="0.00" departDelay="0.00" arrival="530.00" arrivalLane="A3top0_0" arrivalPos="286.40" arrivalSpeed="12.73" duration="94.00" routeLength="597.55" waitingTime="37.00" waitingCount="1" stopTime="0.00" timeLoss="47.68" rerouteNo="0" devices="tripinfo_105" vType="DEFAULT_VEHTYPE" speedFactor="0.94" vaporized=""/>
    <tripinfo id="41" depart="183.00" departLane="top1B3_0" departPos="5.10" departSpeed="0.00" departDelay="0.00" arrival="533.00" arrivalLane="B0bottom1_0" arrivalPos="286.40" arrivalSpeed="10.50" duration="350.00" routeLength="1495.58" waitingTime="194.00" waitingCount="4" stopTime="0.00" timeLoss="221.89" rerouteNo="0" devices="tripinfo_41" vType="DEFAULT_VEHTYPE" speedFactor="0.85" vaporized=""/>
    <tripinfo id="85" depart="368.00" departLane="left2A2_0" departPos="5.10" departSpeed="0.00" departDelay="0.00" arrival="546.00" arrivalLane="A0bottom0_0" arrivalPos="286.40" arrivalSpeed="15.59" duration="178.00" routeLength="1179.77" waitingTime="79.00" waitingCount="3" stopTime="0.00" timeLoss="104.94" rerouteNo="0" devices="tripinfo_85" vType="DEFAULT_VEHTYPE" speedFactor="1.17" vaporized=""/>
    <tripinfo id="67" depart="299.00" departLane="right0D0_0" departPos="5.10" departSpeed="0.00" departDelay="0.00" arrival="550.00" arrivalLane="A1left1_0" arrivalPos="286.40" arrivalSpeed="12.16" duration="251.00" routeLength="1782.72" waitingTime="78.00" waitingCount="3" stopTime="0.00" timeLoss="113.32" rerouteNo="0" devices="tripinfo_67" vType="DEFAULT_VEHTYPE" speedFactor="0.94" vaporized=""/>