<?xml version="1.0" encoding="UTF-8"?>

<!-- generated on 12/10/21 14:13:09 by Eclipse SUMO sumo Version 1.7.0
<configuration xmlns:xsi="http://www.w3.org/2001/XMLSchema-instance" xsi:noNamespaceSchemaLocation="http://sumo.dlr.de/xsd/sumoConfiguration.xsd">

    <input>
        <net-file value="C:\Users\longs\Desktop\RESCO-main\environments\grid4x4\grid4x4.net.xml"/>
        <route-files value="C:\Users\longs\Desktop\RESCO-main\environments\grid4x4\grid4x4_79.rou.xml"/>
    </input>

    <output>
        <tripinfo-output value="C:\Users\longs\Desktop\RESCO-main\logs\STOCHASTIC-tr1-grid4x4-0-mplight-wait\tripinfo_79.xml"/>
        <tripinfo-output.write-unfinished value="true"/>
    </output>

    <processing>
        <time-to-teleport value="-1"/>
    </processing>

    <report>
        <no-warnings value="true"/>
        <no-step-log value="true"/>
    </report>

    <traci_server>
        <remote-port value="59871"/>
    </traci_server>

    <random_number>
        <random value="true"/>
    </random_number>

</configuration>
-->

<tripinfos xmlns:xsi="http://www.w3.org/2001/XMLSchema-instance" xsi:noNamespaceSchemaLocation="http://sumo.dlr.de/xsd/tripinfo_file.xsd">
    <tripinfo id="13" depart="57.00" departLane="left0A0_0" departPos="5.10" departSpeed="0.00" departDelay="0.00" arrival="103.00" arrivalLane="A0bottom0_0" arrivalPos="286.40" arrivalSpeed="14.21" duration="46.00" routeLength="576.73" waitingTime="0.00" waitingCount="0" stopTime="0.00" timeLoss="7.04" rerouteNo="0" devices="tripinfo_13" vType="DEFAULT_VEHTYPE" speedFactor="1.08" vaporized=""/>
    <tripinfo id="10" depart="46.00" departLane="right1D1_0" departPos="5.10" departSpeed="0.00" departDelay="0.00" arrival="125.00" arrivalLane="D0bottom3_0" arrivalPos="286.40" arrivalSpeed="16.04" duration="79.00" routeLength="895.01" waitingTime="12.00" waitingCount="1" stopTime="0.00" timeLoss="26.21" rerouteNo="0" devices="tripinfo_10" vType="DEFAULT_VEHTYPE" speedFactor="1.25" vaporized=""/>
    <tripinfo id="16" depart="66.00" departLane="top0A3_0" departPos="5.10" departSpeed="0.00" departDelay="0.00" arrival="153.00" arrivalLane="B3top1_0" arrivalPos="286.40" arrivalSpeed="13.52" duration="87.00" routeLength="894.86" waitingTime="8.00" waitingCount="1" stopTime="0.00" timeLoss="20.74" rerouteNo="0" devices="tripinfo_16" vType="DEFAULT_VEHTYPE" speedFactor="0.99" vaporized=""/>
    <tripinfo id="5" depart="22.00" departLane="right0D0_0" departPos="5.10" departSpeed="0.00" departDelay="0.00" arrival="157.00" arrivalLane="D3top3_0" arrivalPos="286.40" arrivalSpeed="14.71" duration="135.00" routeLength="1479.94" waitingTime="15.00" waitingCount="2" stopTime="0.00" timeLoss="38.35" rerouteNo="0" devices="tripinfo_5" vType="DEFAULT_VEHTYPE" speedFactor="1.12" vaporized=""/>
    <tripinfo id="29" depart="126.00" departLane="left2A2_0" departPos="5.10" departSpeed="0.00" departDelay="0.00" arrival="196.00" arrivalLane="A3left3_0" arrivalPos="286.40" arrivalSpeed="15.68" duration="70.00" routeLength="894.86" waitingTime="1.00" waitingCount="1" stopTime="0.00" timeLoss="13.71" rerouteNo="0" devices="tripinfo_29" vType="DEFAULT_VEHTYPE" speedFactor="1.18" vaporized=""/>
    <tripinfo id="24" depart="116.00" departLane="left3A3_0" departPos="5.10" departSpeed="0.00" departDelay="0.00" arrival="197.00" arrivalLane="A2left2_0" arrivalPos="286.40" arrivalSpeed="12.51" duration="81.00" routeLength="858.56" waitingTime="2.00" waitingCount="2" stopTime="0.00" timeLoss="16.96" rerouteNo="0" devices="tripinfo_24" vType="DEFAULT_VEHTYPE" speedFactor="0.99" vaporized=""/>
    <tripinfo id="25" depart="116.00" departLane="bottom0A0_0" departPos="5.10" departSpeed="0.00" departDelay="0.00" arrival="199.00" arrivalLane="B0bottom1_0" arrivalPos="286.40" arrivalSpeed="13.88" duration="83.00" routeLength="858.56" waitingTime="2.00" waitingCount="2" stopTime="0.00" timeLoss="19.65" rerouteNo="0" devices="tripinfo_25" vType="DEFAULT_VEHTYPE" speedFactor="1.01" vaporized=""/>
    <tripinfo id="4" depart="19.00" departLane="left1A1_0" departPos="5.10" departSpeed="0.00" departDelay="0.00" arrival="203.00" arrivalLane="C0bottom2_0" arrivalPos="286.40" arrivalSpeed="12.48" duration="184.00" routeLength="1479.94" waitingTime="46.00" waitingCount="2" stopTime="0.00" timeLoss="72.88" rerouteNo="0" devices="tripinfo_4" vType="DEFAULT_VEHTYPE" speedFactor="0.97" vaporized=""/>
    <tripinfo id="1" depart="12.00" departLane="top1B3_0" departPos="5.10" departSpeed="0.00" departDelay="0.00" arrival="206.00" arrivalLane="D2right2_0" arrivalPos="286.40" arrivalSpeed="15.50" duration="194.00" routeLength="1495.35" waitingTime="78.00" waitingCount="2" stopTime="0.00" timeLoss="102.10" rerouteNo="0" devices="tripinfo_1" vType="DEFAULT_VEHTYPE" speedFactor="1.19" vaporized=""/>
    <tripinfo id="18" depart="87.00" departLane="top2C3_0" departPos="5.10" departSpeed="0.00" departDelay="0.00" arrival="210.00" arrivalLane="A3top0_0" arrivalPos="286.40" arrivalSpeed="15.62" duration="123.00" routeLength="1161.43" waitingTime="25.00" waitingCount="3" stopTime="0.00" timeLoss="51.12" rerouteNo="0" devices="tripinfo_18" vType="DEFAULT_VEHTYPE" speedFactor="1.19" vaporized=""/>
    <tripinfo id="14" depart="58.00" departLane="bottom2C0_0" departPos="5.10" departSpeed="0.00" departDelay="0.00" arrival="216.00" arrivalLane="B0bottom1_0" arrivalPos="286.40" arrivalSpeed="15.98" duration="158.00" routeLength="894.86" waitingTime="83.00" waitingCount="2" stopTime="0.00" timeLoss="102.93" rerouteNo="0" devices="tripinfo_14" vType="DEFAULT_VEHTYPE" speedFactor="1.20" vaporized=""/>
    <tripinfo id="33" depart="138.00" departLane="bottom1B0_0" departPos="5.10" departSpeed="0.00" departDelay="2.00" arrival="220.00" arrivalLane="C0bottom2_0" arrivalPos="286.40" arrivalSpeed="12.11" duration="82.00" routeLength="858.56" waitingTime="1.00" waitingCount="1" stopTime="0.00" timeLoss="14.76" rerouteNo="0" devices="tripinfo_33" vType="DEFAULT_VEHTYPE" speedFactor="0.94" vaporized=""/>
    <tripinfo id="2" depart="14.00" departLane="right2D2_0" departPos="5.10" departSpeed="0.00" departDelay="0.00" arrival="239.00" arrivalLane="B3top1_0" arrivalPos="286.40" arrivalSpeed="13.34" duration="225.00" routeLength="1479.94" waitingTime="93.00" waitingCount="3" stopTime="0.00" timeLoss="120.74" rerouteNo="0" devices="tripinfo_2" vType="DEFAULT_VEHTYPE" speedFactor="1.03" vaporized=""/>
    <tripinfo id="6" depart="27.00" departLane="right0D0_0" departPos="5.10" departSpeed="0.00" departDelay="0.00" arrival="247.00" arrivalLane="C3top2_0" arrivalPos="286.40" arrivalSpeed="15.33" duration="220.00" routeLength="1780.11" waitingTime="77.00" waitingCount="3" stopTime="0.00" timeLoss="105.96" rerouteNo="0" devices="tripinfo_6" vType="DEFAULT_VEHTYPE" speedFactor="1.13" vaporized=""/>
    <tripinfo id="7" depart="28.00" departLane="left0A0_0" departPos="5.10" departSpeed="0.00" departDelay="0.00" arrival="251.00" arrivalLane="B3top1_0" arrivalPos="286.40" arrivalSpeed="13.48" duration="223.00" routeLength="1795.52" waitingTime="69.00" waitingCount="2" stopTime="0.00" timeLoss="93.77" rerouteNo="0" devices="tripinfo_7" vType="DEFAULT_VEHTYPE" speedFactor="1.01" vaporized=""/>
    <tripinfo id="17" depart="68.00" departLane="left0A0_0" departPos="5.10" departSpeed="0.00" departDelay="0.00" arrival="268.00" arrivalLane="A3left3_0" arrivalPos="286.40" arrivalSpeed="14.66" duration="200.00" routeLength="1497.83" waitingTime="76.00" waitingCount="2" stopTime="0.00" timeLoss="98.15" rerouteNo="0" devices="tripinfo_17" vType="DEFAULT_VEHTYPE" speedFactor="1.07" vaporized=""/>
    <tripinfo id="0" depart="6.00" departLane="right2D2_0" departPos="5.10" departSpeed="0.00" departDelay="0.00" arrival="270.00" arrivalLane="A3top0_0" arrivalPos="286.40" arrivalSpeed="13.27" duration="264.00" routeLength="1780.11" waitingTime="97.00" waitingCount="4" stopTime="0.00" timeLoss="129.07" rerouteNo="0" devices="tripinfo_0" vType="DEFAULT_VEHTYPE" speedFactor="0.96" vaporized=""/>
    <tripinfo id="8" depart="41.00" departLane="bottom1B0_0" departPos="5.10" departSpeed="0.00" departDelay="0.00" arrival="270.00" arrivalLane="A3top0_1" arrivalPos="286.40" arrivalSpeed="14.49" duration="229.00" routeLength="1782.59" waitingTime="63.00" waitingCount="5" stopTime="0.00" timeLoss="107.12" rerouteNo="0" devices="tripinfo_8" vType="DEFAULT_VEHTYPE" speedFactor="1.07" vaporized=""/>
    <tripinfo id="20" depart="96.00" departLane="bottom2C0_0" departPos="5.10" departSpeed="0.00" departDelay="0.00" arrival="278.00" arrivalLane="C3top2_0" arrivalPos="286.40" arrivalSpeed="15.21" duration="182.00" routeLength="1495.58" waitingTime="58.00" waitingCount="3" stopTime="0.00" timeLoss="84.63" rerouteNo="0" devices="tripinfo_20" vType="DEFAULT_VEHTYPE" speedFactor="1.12" vaporized=""/>
    <tripinfo id="32" depart="135.00" departLane="bottom1B0_0" departPos="5.10" departSpeed="0.00" departDelay="0.00" arrival="278.00" arrivalLane="A1left1_0" arrivalPos="286.40" arrivalSpeed="13.46" duration="143.00" routeLength="1195.18" waitingTime="42.00" waitingCount="2" stopTime="0.00" timeLoss="60.91" rerouteNo="0" devices="tripinfo_32" vType="DEFAULT_VEHTYPE" speedFactor="1.06" vaporized=""/>
    <tripinfo id="45" depart="198.00" departLane="bottom1B0_0" departPos="5.10" departSpeed="0.00" departDelay="0.00" arrival="298.00" arrivalLane="D0bottom3_0" arrivalPos="286.40" arrivalSpeed="13.11" duration="100.00" routeLength="1161.43" waitingTime="1.00" waitingCount="1" stopTime="0.00" timeLoss="15.77" rerouteNo="0" devices="tripinfo_45" vType="DEFAULT_VEHTYPE" speedFactor="1.02" vaporized=""/>
    <tripinfo id="9" depart="45.00" departLane="top2C3_0" departPos="5.10" departSpeed="0.00" departDelay="0.00" arrival="302.00" arrivalLane="C3top2_0" arrivalPos="286.40" arrivalSpeed="11.91" duration="257.00" routeLength="1748.75" waitingTime="87.00" waitingCount="5" stopTime="0.00" timeLoss="119.61" rerouteNo="0" devices="tripinfo_9" vType="DEFAULT_VEHTYPE" speedFactor="0.94" vaporized=""/>
    <tripinfo id="15" depart="65.00" departLane="right1D1_0" departPos="5.10" departSpeed="0.00" departDelay="0.00" arrival="308.00" arrivalLane="B3top1_0" arrivalPos="286.40" arrivalSpeed="14.65" duration="243.00" routeLength="1780.11" waitingTime="82.00" waitingCount="5" stopTime="0.00" timeLoss="121.15" rerouteNo="0" devices="tripinfo_15" vType="DEFAULT_VEHTYPE" speedFactor="1.06" vaporized=""/>
    <tripinfo id="36" depart="147.00" departLane="top0A3_0" departPos="5.10" departSpeed="0.00" departDelay="0.00" arrival="312.00" arrivalLane="A1left1_0" arrivalPos="286.40" arrivalSpeed="12.28" duration="165.00" routeLength="1177.07" waitingTime="50.00" waitingCount="3" stopTime="0.00" timeLoss="71.46" rerouteNo="0" devices="tripinfo_36" vType="DEFAULT_VEHTYPE" speedFactor="0.92" vaporized=""/>
    <tripinfo id="26" depart="120.00" departLane="bottom1B0_0" departPos="5.10" departSpeed="0.00" departDelay="0.00" arrival="314.00" arrivalLane="B3top1_0" arrivalPos="286.40" arrivalSpeed="11.72" duration="194.00" routeLength="1495.58" waitingTime="49.00" waitingCount="2" stopTime="0.00" timeLoss="73.63" rerouteNo="0" devices="tripinfo_26" vType="DEFAULT_VEHTYPE" speedFactor="0.90" vaporized=""/>
    <tripinfo id="22" depart="106.00" departLane="right2D2_0" departPos="5.10" departSpeed="0.00" departDelay="0.00" arrival="330.00" arrivalLane="D0right0_0" arrivalPos="286.40" arrivalSpeed="13.39" duration="224.00" routeLength="1197.66" waitingTime="113.00" waitingCount="2" stopTime="0.00" timeLoss="134.17" rerouteNo="0" devices="tripinfo_22" vType="DEFAULT_VEHTYPE" speedFactor="0.97" vaporized=""/>
    <tripinfo id="23" depart="106.00" departLane="top3D3_0" departPos="5.10" departSpeed="0.00" departDelay="0.00" arrival="334.00" arrivalLane="D0bottom3_0" arrivalPos="286.40" arrivalSpeed="10.35" duration="228.00" routeLength="1495.58" waitingTime="77.00" waitingCount="2" stopTime="0.00" timeLoss="97.42" rerouteNo="0" devices="tripinfo_23" vType="DEFAULT_VEHTYPE" speedFactor="0.83" vaporized=""/>
    <tripinfo id="30" depart="132.00" departLane="top3D3_0" departPos="5.10" departSpeed="0.00" departDelay="0.00" arrival="334.00" arrivalLane="D0bottom3_1" arrivalPos="286.40" arrivalSpeed="11.19" duration="202.00" routeLength="1495.58" waitingTime="52.00" waitingCount="3" stopTime="0.00" timeLoss="81.32" rerouteNo="0" devices="tripinfo_30" vType="DEFAULT_VEHTYPE" speedFactor="0.89" vaporized=""/>
    <tripinfo id="47" depart="221.00" departLane="bottom2C0_0" departPos="5.10" departSpeed="0.00" departDelay="0.00" arrival="338.00" arrivalLane="D1right1_0" arrivalPos="286.40" arrivalSpeed="14.19" duration="117.00" routeLength="1179.77" waitingTime="11.00" waitingCount="3" stopTime="0.00" timeLoss="34.78" rerouteNo="0" devices="tripinfo_47" vType="DEFAULT_VEHTYPE" speedFactor="1.04" vaporized=""/>
    <tripinfo id="27" depart="122.00" departLane="right3D3_0" departPos="5.10" departSpeed="0.00" departDelay="0.00" arrival="369.00" arrivalLane="D3right3_0" arrivalPos="286.40" arrivalSpeed="14.21" duration="247.00" routeLength="1745.91" waitingTime="88.00" waitingCount="4" stopTime="0.00" timeLoss="122.38" rerouteNo="0" devices="tripinfo_27" vType="DEFAULT_VEHTYPE" speedFactor="1.03" vaporized=""/>
    <tripinfo id="21" depart="99.00" departLane="left0A0_0" departPos="5.10" departSpeed="0.00" departDelay="0.00" arrival="372.00" arrivalLane="D0bottom3_0" arrivalPos="286.40" arrivalSpeed="16.38" duration="273.00" routeLength="1477.24" waitingTime="148.00" waitingCount="4" stopTime="0.00" timeLoss="185.86" rerouteNo="0" devices="tripinfo_21" vType="DEFAULT_VEHTYPE" speedFactor="1.24" vaporized=""/>
    <tripinfo id="66" depart="279.00" departLane="left3A3_0" departPos="5.10" departSpeed="0.00" departDelay="0.00" arrival="379.00" arrivalLane="A1left1_0" arrivalPos="286.40" arrivalSpeed="13.69" duration="100.00" routeLength="1161.43" waitingTime="2.00" waitingCount="2" stopTime="0.00" timeLoss="20.83" rerouteNo="0" devices="tripinfo_66" vType="DEFAULT_VEHTYPE" speedFactor="1.08" vaporized=""/>
    <tripinfo id="44" depart="194.00" departLane="bottom0A0_0" departPos="5.10" departSpeed="0.00" departDelay="0.00" arrival="386.00" arrivalLane="D0bottom3_0" arrivalPos="286.40" arrivalSpeed="12.06" duration="192.00" routeLength="1461.60" waitingTime="40.00" waitingCount="4" stopTime="0.00" timeLoss="71.63" rerouteNo="0" devices="tripinfo_44" vType="DEFAULT_VEHTYPE" speedFactor="0.89" vaporized=""/>
    <tripinfo id="46" depart="200.00" departLane="top3D3_0" departPos="5.10" departSpeed="0.00" departDelay="0.00" arrival="386.00" arrivalLane="D0right0_0" arrivalPos="286.40" arrivalSpeed="12.25" duration="186.00" routeLength="1498.06" waitingTime="51.00" waitingCount="2" stopTime="0.00" timeLoss="70.27" rerouteNo="0" devices="tripinfo_46" vType="DEFAULT_VEHTYPE" speedFactor="0.94" vaporized=""/>
    <tripinfo id="48" depart="223.00" departLane="left3A3_0" departPos="5.10" departSpeed="0.00" departDelay="0.00" arrival="386.00" arrivalLane="D3top3_0" arrivalPos="286.40" arrivalSpeed="11.62" duration="163.00" routeLength="1498.06" waitingTime="23.00" waitingCount="2" stopTime="0.00" timeLoss="44.39" rerouteNo="0" devices="tripinfo_48" vType="DEFAULT_VEHTYPE" speedFactor="0.92" vaporized=""/>
    <tripinfo id="3" depart="17.00" departLane="top0A3_0" departPos="5.10" departSpeed="0.00" departDelay="0.00" arrival="397.00" arrivalLane="D0right0_0" arrivalPos="286.40" arrivalSpeed="14.91" duration="380.00" routeLength="2395.86" waitingTime="184.00" waitingCount="4" stopTime="0.00" timeLoss="224.90" rerouteNo="0" devices="tripinfo_3" vType="DEFAULT_VEHTYPE" speedFactor="1.12" vaporized=""/>
    <tripinfo id="55" depart="252.00" departLane="left0A0_0" departPos="5.10" departSpeed="0.00" departDelay="0.00" arrival="400.00" arrivalLane="A1left1_0" arrivalPos="286.40" arrivalSpeed="8.50" duration="148.00" routeLength="894.86" waitingTime="38.00" waitingCount="2" stopTime="0.00" timeLoss="54.46" rerouteNo="0" devices="tripinfo_55" vType="DEFAULT_VEHTYPE" speedFactor="0.70" vaporized=""/>
    <tripinfo id="72" depart="314.00" departLane="top3D3_0" departPos="5.10" departSpeed="0.00" departDelay="0.00" arrival="400.00" arrivalLane="C3top2_0" arrivalPos="286.40" arrivalSpeed="11.51" duration="86.00" routeLength="858.56" waitingTime="1.00" waitingCount="1" stopTime="0.00" timeLoss="15.80" rerouteNo="0" devices="tripinfo_72" vType="DEFAULT_VEHTYPE" speedFactor="0.90" vaporized=""/>
    <tripinfo id="28" depart="123.00" departLane="bottom3D0_0" departPos="5.10" departSpeed="0.00" departDelay="0.00" arrival="409.00" arrivalLane="D2right2_0" arrivalPos="286.40" arrivalSpeed="10.95" duration="286.00" routeLength="1177.07" waitingTime="154.00" waitingCount="3" stopTime="0.00" timeLoss="179.01" rerouteNo="0" devices="tripinfo_28" vType="DEFAULT_VEHTYPE" speedFactor="0.80" vaporized=""/>
    <tripinfo id="79" depart="328.00" departLane="right1D1_0" departPos="5.10" departSpeed="0.00" departDelay="0.00" arrival="412.00" arrivalLane="D2right2_0" arrivalPos="286.40" arrivalSpeed="12.88" duration="84.00" routeLength="858.56" waitingTime="2.00" waitingCount="2" stopTime="0.00" timeLoss="17.48" rerouteNo="0" devices="tripinfo_79" vType="DEFAULT_VEHTYPE" speedFactor="0.95" vaporized=""/>
    <tripinfo id="57" depart="254.00" departLane="top3D3_0" departPos="5.10" departSpeed="0.00" departDelay="0.00" arrival="429.00" arrivalLane="A2left2_0" arrivalPos="286.40" arrivalSpeed="12.00" duration="175.00" routeLength="1780.11" waitingTime="14.00" waitingCount="2" stopTime="0.00" timeLoss="39.74" rerouteNo="0" devices="tripinfo_57" vType="DEFAULT_VEHTYPE" speedFactor="0.96" vaporized=""/>
    <tripinfo id="19" depart="92.00" departLane="right2D2_0" departPos="5.10" departSpeed="0.00" departDelay="0.00" arrival="430.00" arrivalLane="A3top0_0" arrivalPos="286.40" arrivalSpeed="13.11" duration="338.00" routeLength="1780.11" waitingTime="173.00" waitingCount="4" stopTime="0.00" timeLoss="202.89" rerouteNo="0" devices="tripinfo_19" vType="DEFAULT_VEHTYPE" speedFactor="0.96" vaporized=""/>
    <tripinfo id="31" depart="133.00" departLane="left3A3_0" departPos="5.10" departSpeed="0.00" departDelay="0.00" arrival="430.00" arrivalLane="A3left3_0" arrivalPos="286.40" arrivalSpeed="12.68" duration="297.00" routeLength="1748.75" waitingTime="130.00" waitingCount="5" stopTime="0.00" timeLoss="169.46" rerouteNo="0" devices="tripinfo_31" vType="DEFAULT_VEHTYPE" speedFactor="1.01" vaporized=""/>
    <tripinfo id="71" depart="306.00" departLane="left2A2_0" departPos="5.10" departSpeed="0.00" departDelay="0.00" arrival="432.00" arrivalLane="A3top0_0" arrivalPos="286.40" arrivalSpeed="12.30" duration="126.00" routeLength="895.01" waitingTime="41.00" waitingCount="2" stopTime="0.00" timeLoss="57.73" rerouteNo="0" devices="tripinfo_71" vType="DEFAULT_VEHTYPE" speedFactor="0.95" vaporized=""/>
    <tripinfo id="35" depart="146.00" departLane="left2A2_0" departPos="5.10" departSpeed="0.00" departDelay="0.00" arrival="438.00" arrivalLane="A2left2_0" arrivalPos="286.40" arrivalSpeed="13.48" duration="292.00" routeLength="1748.75" waitingTime="136.00" waitingCount="3" stopTime="0.00" timeLoss="168.91" rerouteNo="0" devices="tripinfo_35" vType="DEFAULT_VEHTYPE" speedFactor="1.04" vaporized=""/>
    <tripinfo id="51" depart="236.00" departLane="top0A3_0" departPos="5.10" departSpeed="0.00" departDelay="0.00" arrival="447.00" arrivalLane="D2right2_0" arrivalPos="286.40" arrivalSpeed="14.97" duration="211.00" routeLength="1795.52" waitingTime="62.00" waitingCount="4" stopTime="0.00" timeLoss="92.60" rerouteNo="0" devices="tripinfo_51" vType="DEFAULT_VEHTYPE" speedFactor="1.10" vaporized=""/>
    <tripinfo id="88" depart="389.00" departLane="right0D0_0" departPos="5.10" departSpeed="0.00" departDelay="0.00" arrival="448.00" arrivalLane="D0bottom3_0" arrivalPos="286.40" arrivalSpeed="13.88" duration="59.00" routeLength="597.55" waitingTime="6.00" waitingCount="1" stopTime="0.00" timeLoss="17.88" rerouteNo="0" devices="tripinfo_88" vType="DEFAULT_VEHTYPE" speedFactor="1.07" vaporized=""/>
    <tripinfo id="52" depart="238.00" departLane="right1D1_0" departPos="5.10" departSpeed="0.00" departDelay="0.00" arrival="455.00" arrivalLane="B0bottom1_0" arrivalPos="286.40" arrivalSpeed="17.15" duration="217.00" routeLength="1495.35" waitingTime="113.00" waitingCount="2" stopTime="0.00" timeLoss="130.43" rerouteNo="0" devices="tripinfo_52" vType="DEFAULT_VEHTYPE" speedFactor="1.26" vaporized=""/>
    <tripinfo id="70" depart="295.00" departLane="top3D3_0" departPos="5.10" departSpeed="0.00" departDelay="0.00" arrival="459.00" arrivalLane="D1right1_0" arrivalPos="286.40" arrivalSpeed="12.48" duration="164.00" routeLength="1197.89" waitingTime="58.00" waitingCount="2" stopTime="0.00" timeLoss="75.89" rerouteNo="0" devices="tripinfo_70" vType="DEFAULT_VEHTYPE" speedFactor="0.98" vaporized=""/>
    <tripinfo id="38" depart="155.00" departLane="bottom2C0_0" departPos="5.10" departSpeed="0.00" departDelay="0.00" arrival="460.00" arrivalLane="A0left0_0" arrivalPos="286.40" arrivalSpeed="14.72" duration="305.00" routeLength="1195.18" waitingTime="208.00" waitingCount="2" stopTime="0.00" timeLoss="224.62" rerouteNo="0" devices="tripinfo_38" vType="DEFAULT_VEHTYPE" speedFactor="1.09" vaporized=""/>
    <tripinfo id="40" depart="165.00" departLane="right2D2_0" departPos="5.10" departSpeed="0.00" departDelay="0.00" arrival="460.00" arrivalLane="B0bottom1_0" arrivalPos="286.40" arrivalSpeed="14.02" duration="295.00" routeLength="1795.52" waitingTime="132.00" waitingCount="5" stopTime="0.00" timeLoss="174.60" rerouteNo="0" devices="tripinfo_40" vType="DEFAULT_VEHTYPE" speedFactor="1.08" vaporized=""/>
    <tripinfo id="34" depart="144.00" departLane="bottom3D0_0" departPos="5.10" departSpeed="0.00" departDelay="0.00" arrival="462.00" arrivalLane="A0bottom0_0" arrivalPos="286.40" arrivalSpeed="12.83" duration="318.00" routeLength="1497.83" waitingTime="189.00" waitingCount="2" stopTime="0.00" timeLoss="210.91" rerouteNo="0" devices="tripinfo_34" vType="DEFAULT_VEHTYPE" speedFactor="1.02" vaporized=""/>
    <tripinfo id="11" depart="46.00" departLane="left3A3_0" departPos="5.10" departSpeed="0.00" departDelay="0.00" arrival="469.00" arrivalLane="A0bottom0_0" arrivalPos="286.40" arrivalSpeed="13.59" duration="423.00" routeLength="1479.94" waitingTime="289.00" waitingCount="4" stopTime="0.00" timeLoss="317.05" rerouteNo="0" devices="tripinfo_11" vType="DEFAULT_VEHTYPE" speedFactor="1.02" vaporized=""/>
    <tripinfo id="50" depart="236.00" departLane="left2A2_0" departPos="5.10" departSpeed="0.00" departDelay="0.00" arrival="470.00" arrivalLane="C3top2_0" arrivalPos="286.40" arrivalSpeed="12.99" duration="234.00" routeLength="1495.35" waitingTime="95.00" waitingCount="4" stopTime="0.00" timeLoss="121.85" rerouteNo="0" devices="tripinfo_50" vType="DEFAULT_VEHTYPE" speedFactor="0.97" vaporized=""/>
    <tripinfo id="54" depart="245.00" departLane="left2A2_0" departPos="5.10" departSpeed="0.00" departDelay="0.00" arrival="471.00" arrivalLane="C3top2_1" arrivalPos="286.40" arrivalSpeed="12.89" duration="226.00" routeLength="1495.35" waitingTime="82.00" waitingCount="4" stopTime="0.00" timeLoss="118.53" rerouteNo="0" devices="tripinfo_54" vType="DEFAULT_VEHTYPE" speedFactor="1.01" vaporized=""/>
    <tripinfo id="63" depart="275.00" departLane="bottom3D0_0" departPos="5.10" departSpeed="0.00" departDelay="0.00" arrival="471.00" arrivalLane="D0bottom3_0" arrivalPos="286.40" arrivalSpeed="13.54" duration="196.00" routeLength="1745.91" waitingTime="44.00" waitingCount="4" stopTime="0.00" timeLoss="72.85" rerouteNo="0" devices="tripinfo_63" vType="DEFAULT_VEHTYPE" speedFactor="1.04" vaporized=""/>
    <tripinfo id="60" depart="267.00" departLane="top3D3_0" departPos="5.10" departSpeed="0.00" departDelay="0.00" arrival="473.00" arrivalLane="D0right0_0" arrivalPos="286.40" arrivalSpeed="12.07" duration="206.00" routeLength="1498.06" waitingTime="57.00" waitingCount="3" stopTime="0.00" timeLoss="82.77" rerouteNo="0" devices="tripinfo_60" vType="DEFAULT_VEHTYPE" speedFactor="0.89" vaporized=""/>
    <tripinfo id="78" depart="326.00" departLane="left3A3_0" departPos="5.10" departSpeed="0.00" departDelay="0.00" arrival="480.00" arrivalLane="D2right2_1" arrivalPos="286.40" arrivalSpeed="15.17" duration="154.00" routeLength="1782.72" waitingTime="11.00" waitingCount="1" stopTime="0.00" timeLoss="41.27" rerouteNo="0" devices="tripinfo_78" vType="DEFAULT_VEHTYPE" speedFactor="1.15" vaporized=""/>
    <tripinfo id="43" depart="176.00" departLane="bottom0A0_0" departPos="5.10" departSpeed="0.00" departDelay="0.00" arrival="482.00" arrivalLane="D2right2_0" arrivalPos="286.40" arrivalSpeed="11.31" duration="306.00" routeLength="2080.28" waitingTime="87.00" waitingCount="6" stopTime="0.00" timeLoss="135.66" rerouteNo="0" devices="tripinfo_43" vType="DEFAULT_VEHTYPE" speedFactor="0.88" vaporized=""/>
    <tripinfo id="67" depart="285.00" departLane="bottom1B0_0" departPos="5.10" departSpeed="0.00" departDelay="0.00" arrival="484.00" arrivalLane="D2right2_0" arrivalPos="286.40" arrivalSpeed="12.15" duration="199.00" routeLength="1780.11" waitingTime="22.00" waitingCount="4" stopTime="0.00" timeLoss="54.07" rerouteNo="0" devices="tripinfo_67" vType="DEFAULT_VEHTYPE" speedFactor="0.89" vaporized=""/>
    <tripinfo id="93" depart="414.00" departLane="left3A3_0" departPos="5.10" departSpeed="0.00" departDelay="0.00" arrival="499.00" arrivalLane="A3top0_0" arrivalPos="286.40" arrivalSpeed="14.18" duration="85.00" routeLength="597.55" waitingTime="33.00" waitingCount="1" stopTime="0.00" timeLoss="42.71" rerouteNo="0" devices="tripinfo_93" vType="DEFAULT_VEHTYPE" speedFactor="1.05" vaporized=""/>
    <tripinfo id="42" depart="171.00" departLane="bottom2C0_0" departPos="5.10" departSpeed="0.00" departDelay="0.00" arrival="509.00" arrivalLane="A0left0_0" arrivalPos="286.40" arrivalSpeed="12.77" duration="338.00" routeLength="1195.18" waitingTime="225.00" waitingCount="3" stopTime="0.00" timeLoss="250.24" rerouteNo="0" devices="tripinfo_42" vType="DEFAULT_VEHTYPE" speedFactor="0.99" vaporized=""/>
    <tripinfo id="94" depart="417.00" departLane="bottom3D0_0" departPos="5.10" departSpeed="0.00" departDelay="0.00" arrival="510.00" arrivalLane="D1right1_0" arrivalPos="286.40" arrivalSpeed="13.05" duration="93.00" routeLength="876.90" waitingTime="10.00" waitingCount="2" stopTime="0.00" timeLoss="25.35" rerouteNo="0" devices="tripinfo_94" vType="DEFAULT_VEHTYPE" speedFactor="0.94" vaporized=""/>
    <tripinfo id="61" depart="271.00" departLane="left1A1_0" departPos="5.10" departSpeed="0.00" departDelay="0.00" arrival="511.00" arrivalLane="C3top2_0" arrivalPos="286.40" arrivalSpeed="12.98" duration="240.00" routeLength="1795.52" waitingTime="69.00" waitingCount="3" stopTime="0.00" timeLoss="100.70" rerouteNo="0" devices="tripinfo_61" vType="DEFAULT_VEHTYPE" speedFactor="0.94" vaporized=""/>
    <tripinfo id="56" depart="254.00" departLane="bottom2C0_0" departPos="5.10" departSpeed="0.00" departDelay="0.00" arrival="513.00" arrivalLane="A0left0_1" arrivalPos="286.40" arrivalSpeed="14.79" duration="259.00" routeLength="1195.18" waitingTime="150.00" waitingCount="3" stopTime="0.00" timeLoss="179.90" rerouteNo="0" devices="tripinfo_56" vType="DEFAULT_VEHTYPE" speedFactor="1.10" vaporized=""/>
    <tripinfo id="73" depart="314.00" departLane="bottom3D0_0" departPos="5.10" departSpeed="0.00" departDelay="0.00" arrival="513.00" arrivalLane="C3top2_0" arrivalPos="286.40" arrivalSpeed="12.62" duration="199.00" routeLength="1782.59" waitingTime="23.00" waitingCount="2" stopTime="0.00" timeLoss="58.21" rerouteNo="0" devices="tripinfo_73" vType="DEFAULT_VEHTYPE" speedFactor="0.92" vaporized=""/>
    <tripinfo id="12" depart="52.00" departLane="top2C3_0" departPos="5.10" departSpeed="0.00" departDelay="0.00" arrival="514.00" arrivalLane="A0left0_0" arrivalPos="286.40" arrivalSpeed="12.86" duration="462.00" routeLength="2080.28" waitingTime="258.00" waitingCount="6" stopTime="0.00" timeLoss="302.48" rerouteNo="0" devices="tripinfo_12" vType="DEFAULT_VEHTYPE" speedFactor="0.94" vaporized=""/>
    <tripinfo id="53" depart="240.00" departLane="right0D0_0" departPos="5.10" departSpeed="0.00" departDelay="0.00" arrival="515.00" arrivalLane="A0left0_1" arrivalPos="286.40" arrivalSpeed="14.10" duration="275.00" routeLength="1495.58" waitingTime="142.00" waitingCount="5" stopTime="0.00" timeLoss="176.72" rerouteNo="0" devices="tripinfo_53" vType="DEFAULT_VEHTYPE" speedFactor="1.10" vaporized=""/>
    <tripinfo id="76" depart="324.00" departLane="right2D2_0" departPos="5.10" departSpeed="0.00" departDelay="0.00" arrival="519.00" arrivalLane="A0left0_0" arrivalPos="286.40" arrivalSpeed="13.32" duration="195.00" routeLength="2080.05" waitingTime="20.00" waitingCount="3" stopTime="0.00" timeLoss="46.70" rerouteNo="0" devices="tripinfo_76" vType="DEFAULT_VEHTYPE" speedFactor="1.02" vaporized=""/>
    <tripinfo id="81" depart="339.00" departLane="bottom1B0_0" departPos="5.10" departSpeed="0.00" departDelay="0.00" arrival="522.00" arrivalLane="A2left2_1" arrivalPos="286.40" arrivalSpeed="12.21" duration="183.00" routeLength="1495.35" waitingTime="37.00" waitingCount="2" stopTime="0.00" timeLoss="59.43" rerouteNo="0" devices="tripinfo_81" vType="DEFAULT_VEHTYPE" speedFactor="0.88" vaporized=""/>
    <tripinfo id="62" depart="271.00" departLane="right1D1_0" departPos="5.10" departSpeed="0.00" departDelay="0.00" arrival="524.00" arrivalLane="B3top1_0" arrivalPos="286.40" arrivalSpeed="10.97" duration="253.00" routeLength="1780.11" waitingTime="68.00" waitingCount="4" stopTime="0.00" timeLoss="97.88" rerouteNo="0" devices="tripinfo_62" vType="DEFAULT_VEHTYPE" speedFactor="0.83" vaporized=""/>