<?xml version="1.0" encoding="UTF-8"?>

<!-- generated on 12/10/21 13:52:06 by Eclipse SUMO sumo Version 1.7.0
<configuration xmlns:xsi="http://www.w3.org/2001/XMLSchema-instance" xsi:noNamespaceSchemaLocation="http://sumo.dlr.de/xsd/sumoConfiguration.xsd">

    <input>
        <net-file value="C:\Users\longs\Desktop\RESCO-main\environments\grid4x4\grid4x4.net.xml"/>
        <route-files value="C:\Users\longs\Desktop\RESCO-main\environments\grid4x4\grid4x4_15.rou.xml"/>
    </input>

    <output>
        <tripinfo-output value="C:\Users\longs\Desktop\RESCO-main\logs\STOCHASTIC-tr1-grid4x4-0-mplight-wait\tripinfo_15.xml"/>
        <tripinfo-output.write-unfinished value="true"/>
    </output>

    <processing>
        <time-to-teleport value="-1"/>
    </processing>

    <report>
        <no-warnings value="true"/>
        <no-step-log value="true"/>
    </report>

    <traci_server>
        <remote-port value="59033"/>
    </traci_server>

    <random_number>
        <random value="true"/>
    </random_number>

</configuration>
-->

<tripinfos xmlns:xsi="http://www.w3.org/2001/XMLSchema-instance" xsi:noNamespaceSchemaLocation="http://sumo.dlr.de/xsd/tripinfo_file.xsd">
    <tripinfo id="1" depart="0.00" departLane="left1A1_0" departPos="5.10" departSpeed="0.00" departDelay="0.00" arrival="68.00" arrivalLane="A0bottom0_0" arrivalPos="286.40" arrivalSpeed="13.95" duration="68.00" routeLength="879.60" waitingTime="0.00" waitingCount="0" stopTime="0.00" timeLoss="6.99" rerouteNo="0" devices="tripinfo_1" vType="DEFAULT_VEHTYPE" speedFactor="1.05" vaporized=""/>
    <tripinfo id="12" depart="45.00" departLane="top0A3_0" departPos="5.10" departSpeed="0.00" departDelay="0.00" arrival="100.00" arrivalLane="A3left3_0" arrivalPos="286.40" arrivalSpeed="13.31" duration="55.00" routeLength="576.73" waitingTime="1.00" waitingCount="1" stopTime="0.00" timeLoss="12.80" rerouteNo="0" devices="tripinfo_12" vType="DEFAULT_VEHTYPE" speedFactor="1.01" vaporized=""/>
    <tripinfo id="5" depart="26.00" departLane="top3D3_0" departPos="5.10" departSpeed="0.00" departDelay="0.00" arrival="112.00" arrivalLane="C3top2_0" arrivalPos="286.40" arrivalSpeed="12.48" duration="86.00" routeLength="858.56" waitingTime="5.00" waitingCount="2" stopTime="0.00" timeLoss="21.41" rerouteNo="0" devices="tripinfo_5" vType="DEFAULT_VEHTYPE" speedFactor="0.97" vaporized=""/>
    <tripinfo id="10" depart="39.00" departLane="top3D3_0" departPos="5.10" departSpeed="0.00" departDelay="0.00" arrival="139.00" arrivalLane="D3right3_0" arrivalPos="286.40" arrivalSpeed="14.08" duration="100.00" routeLength="597.55" waitingTime="48.00" waitingCount="1" stopTime="0.00" timeLoss="57.40" rerouteNo="0" devices="tripinfo_10" vType="DEFAULT_VEHTYPE" speedFactor="1.04" vaporized=""/>
    <tripinfo id="8" depart="35.00" departLane="bottom1B0_0" departPos="5.10" departSpeed="0.00" departDelay="0.00" arrival="161.00" arrivalLane="A0left0_0" arrivalPos="286.40" arrivalSpeed="11.85" duration="126.00" routeLength="895.01" waitingTime="39.00" waitingCount="1" stopTime="0.00" timeLoss="55.70" rerouteNo="0" devices="tripinfo_8" vType="DEFAULT_VEHTYPE" speedFactor="0.92" vaporized=""/>
    <tripinfo id="25" depart="148.00" departLane="left0A0_0" departPos="5.10" departSpeed="0.00" departDelay="0.00" arrival="200.00" arrivalLane="A0bottom0_0" arrivalPos="286.40" arrivalSpeed="14.36" duration="52.00" routeLength="576.73" waitingTime="1.00" waitingCount="1" stopTime="0.00" timeLoss="10.95" rerouteNo="0" devices="tripinfo_25" vType="DEFAULT_VEHTYPE" speedFactor="1.04" vaporized=""/>
    <tripinfo id="21" depart="121.00" departLane="left0A0_0" departPos="5.10" departSpeed="0.00" departDelay="0.00" arrival="217.00" arrivalLane="B0bottom1_0" arrivalPos="286.40" arrivalSpeed="14.60" duration="96.00" routeLength="876.90" waitingTime="18.00" waitingCount="2" stopTime="0.00" timeLoss="36.01" rerouteNo="0" devices="tripinfo_21" vType="DEFAULT_VEHTYPE" speedFactor="1.07" vaporized=""/>
    <tripinfo id="2" depart="4.00" departLane="bottom2C0_0" departPos="5.10" departSpeed="0.00" departDelay="0.00" arrival="218.00" arrivalLane="D1right1_0" arrivalPos="286.40" arrivalSpeed="13.75" duration="214.00" routeLength="1179.77" waitingTime="109.00" waitingCount="3" stopTime="0.00" timeLoss="129.83" rerouteNo="0" devices="tripinfo_2" vType="DEFAULT_VEHTYPE" speedFactor="1.02" vaporized=""/>
    <tripinfo id="26" depart="155.00" departLane="right3D3_0" departPos="5.10" departSpeed="0.00" departDelay="0.00" arrival="239.00" arrivalLane="D2right2_0" arrivalPos="286.40" arrivalSpeed="13.68" duration="84.00" routeLength="894.86" waitingTime="3.00" waitingCount="1" stopTime="0.00" timeLoss="22.38" rerouteNo="0" devices="tripinfo_26" vType="DEFAULT_VEHTYPE" speedFactor="1.07" vaporized=""/>
    <tripinfo id="17" depart="75.00" departLane="top0A3_0" departPos="5.10" departSpeed="0.00" departDelay="0.00" arrival="245.00" arrivalLane="B0bottom1_0" arrivalPos="286.40" arrivalSpeed="16.12" duration="170.00" routeLength="1782.59" waitingTime="32.00" waitingCount="3" stopTime="0.00" timeLoss="59.38" rerouteNo="0" devices="tripinfo_17" vType="DEFAULT_VEHTYPE" speedFactor="1.17" vaporized=""/>
    <tripinfo id="6" depart="30.00" departLane="top2C3_0" departPos="5.10" departSpeed="0.00" departDelay="0.00" arrival="250.00" arrivalLane="D0bottom3_0" arrivalPos="286.40" arrivalSpeed="12.74" duration="220.00" routeLength="1782.59" waitingTime="49.00" waitingCount="5" stopTime="0.00" timeLoss="85.11" rerouteNo="0" devices="tripinfo_6" vType="DEFAULT_VEHTYPE" speedFactor="0.96" vaporized=""/>
    <tripinfo id="11" depart="41.00" departLane="left0A0_0" departPos="5.10" departSpeed="0.00" departDelay="0.00" arrival="251.00" arrivalLane="D1right1_0" arrivalPos="286.40" arrivalSpeed="12.47" duration="210.00" routeLength="1782.59" waitingTime="28.00" waitingCount="4" stopTime="0.00" timeLoss="65.67" rerouteNo="0" devices="tripinfo_11" vType="DEFAULT_VEHTYPE" speedFactor="0.90" vaporized=""/>
    <tripinfo id="33" depart="171.00" departLane="top2C3_0" departPos="5.10" departSpeed="0.00" departDelay="0.00" arrival="269.00" arrivalLane="D3right3_0" arrivalPos="286.40" arrivalSpeed="13.37" duration="98.00" routeLength="895.01" waitingTime="16.00" waitingCount="2" stopTime="0.00" timeLoss="33.27" rerouteNo="0" devices="tripinfo_33" vType="DEFAULT_VEHTYPE" speedFactor="1.00" vaporized=""/>
    <tripinfo id="39" depart="199.00" departLane="right2D2_0" departPos="5.10" departSpeed="0.00" departDelay="0.00" arrival="277.00" arrivalLane="D3right3_0" arrivalPos="286.40" arrivalSpeed="13.72" duration="78.00" routeLength="858.56" waitingTime="1.00" waitingCount="1" stopTime="0.00" timeLoss="17.67" rerouteNo="0" devices="tripinfo_39" vType="DEFAULT_VEHTYPE" speedFactor="1.06" vaporized=""/>
    <tripinfo id="14" depart="65.00" departLane="bottom2C0_0" departPos="5.10" departSpeed="0.00" departDelay="0.00" arrival="278.00" arrivalLane="C3top2_0" arrivalPos="286.40" arrivalSpeed="14.79" duration="213.00" routeLength="1495.58" waitingTime="93.00" waitingCount="2" stopTime="0.00" timeLoss="114.59" rerouteNo="0" devices="tripinfo_14" vType="DEFAULT_VEHTYPE" speedFactor="1.10" vaporized=""/>
    <tripinfo id="45" depart="225.00" departLane="bottom0A0_0" departPos="5.10" departSpeed="0.00" departDelay="0.00" arrival="279.00" arrivalLane="A0left0_0" arrivalPos="286.40" arrivalSpeed="13.57" duration="54.00" routeLength="597.55" waitingTime="0.00" waitingCount="0" stopTime="0.00" timeLoss="8.87" rerouteNo="0" devices="tripinfo_45" vType="DEFAULT_VEHTYPE" speedFactor="0.98" vaporized=""/>
    <tripinfo id="19" depart="86.00" departLane="bottom3D0_0" departPos="5.10" departSpeed="0.00" departDelay="0.00" arrival="282.00" arrivalLane="C3top2_0" arrivalPos="286.40" arrivalSpeed="12.37" duration="196.00" routeLength="1782.59" waitingTime="23.00" waitingCount="3" stopTime="0.00" timeLoss="63.49" rerouteNo="0" devices="tripinfo_19" vType="DEFAULT_VEHTYPE" speedFactor="0.98" vaporized=""/>
    <tripinfo id="40" depart="206.00" departLane="left3A3_0" departPos="5.10" departSpeed="0.00" departDelay="0.00" arrival="289.00" arrivalLane="A2left2_0" arrivalPos="286.40" arrivalSpeed="12.10" duration="83.00" routeLength="858.56" waitingTime="1.00" waitingCount="1" stopTime="0.00" timeLoss="12.70" rerouteNo="0" devices="tripinfo_40" vType="DEFAULT_VEHTYPE" speedFactor="0.91" vaporized=""/>
    <tripinfo id="24" depart="136.00" departLane="top0A3_0" departPos="5.10" departSpeed="0.00" departDelay="0.00" arrival="291.00" arrivalLane="A2left2_0" arrivalPos="286.40" arrivalSpeed="14.50" duration="155.00" routeLength="876.90" waitingTime="80.00" waitingCount="1" stopTime="0.00" timeLoss="94.52" rerouteNo="0" devices="tripinfo_24" vType="DEFAULT_VEHTYPE" speedFactor="1.07" vaporized=""/>
    <tripinfo id="50" depart="247.00" departLane="right3D3_0" departPos="5.10" departSpeed="0.00" departDelay="0.00" arrival="297.00" arrivalLane="D3top3_0" arrivalPos="286.40" arrivalSpeed="14.76" duration="50.00" routeLength="576.73" waitingTime="1.00" waitingCount="1" stopTime="0.00" timeLoss="12.14" rerouteNo="0" devices="tripinfo_50" vType="DEFAULT_VEHTYPE" speedFactor="1.14" vaporized=""/>
    <tripinfo id="13" depart="58.00" departLane="right0D0_0" departPos="5.10" departSpeed="0.00" departDelay="0.00" arrival="298.00" arrivalLane="A0bottom0_0" arrivalPos="286.40" arrivalSpeed="13.90" duration="240.00" routeLength="1498.06" waitingTime="109.00" waitingCount="4" stopTime="0.00" timeLoss="137.76" rerouteNo="0" devices="tripinfo_13" vType="DEFAULT_VEHTYPE" speedFactor="1.07" vaporized=""/>
    <tripinfo id="7" depart="31.00" departLane="right3D3_0" departPos="5.10" departSpeed="0.00" departDelay="0.00" arrival="302.00" arrivalLane="A3left3_0" arrivalPos="286.40" arrivalSpeed="11.80" duration="271.00" routeLength="1495.58" waitingTime="127.00" waitingCount="2" stopTime="0.00" timeLoss="149.86" rerouteNo="0" devices="tripinfo_7" vType="DEFAULT_VEHTYPE" speedFactor="0.89" vaporized=""/>
    <tripinfo id="28" depart="158.00" departLane="right3D3_0" departPos="5.10" departSpeed="0.00" departDelay="1.00" arrival="303.00" arrivalLane="A3left3_1" arrivalPos="286.40" arrivalSpeed="11.79" duration="145.00" routeLength="1495.58" waitingTime="7.00" waitingCount="1" stopTime="0.00" timeLoss="28.30" rerouteNo="0" devices="tripinfo_28" vType="DEFAULT_VEHTYPE" speedFactor="0.92" vaporized=""/>
    <tripinfo id="31" depart="167.00" departLane="top0A3_0" departPos="5.10" departSpeed="0.00" departDelay="0.00" arrival="308.00" arrivalLane="A2left2_0" arrivalPos="286.40" arrivalSpeed="11.55" duration="141.00" routeLength="876.90" waitingTime="49.00" waitingCount="2" stopTime="0.00" timeLoss="64.96" rerouteNo="0" devices="tripinfo_31" vType="DEFAULT_VEHTYPE" speedFactor="0.84" vaporized=""/>
    <tripinfo id="18" depart="78.00" departLane="bottom1B0_0" departPos="5.10" departSpeed="0.00" departDelay="0.00" arrival="318.00" arrivalLane="D2right2_0" arrivalPos="286.40" arrivalSpeed="13.45" duration="240.00" routeLength="1780.11" waitingTime="79.00" waitingCount="4" stopTime="0.00" timeLoss="114.51" rerouteNo="0" devices="tripinfo_18" vType="DEFAULT_VEHTYPE" speedFactor="1.03" vaporized=""/>
    <tripinfo id="55" depart="263.00" departLane="top3D3_0" departPos="5.10" departSpeed="0.00" departDelay="0.00" arrival="319.00" arrivalLane="D3right3_0" arrivalPos="286.40" arrivalSpeed="13.55" duration="56.00" routeLength="597.55" waitingTime="2.00" waitingCount="1" stopTime="0.00" timeLoss="12.93" rerouteNo="0" devices="tripinfo_55" vType="DEFAULT_VEHTYPE" speedFactor="1.01" vaporized=""/>
    <tripinfo id="32" depart="171.00" departLane="bottom0A0_0" departPos="5.10" departSpeed="0.00" departDelay="0.00" arrival="324.00" arrivalLane="A3top0_0" arrivalPos="286.40" arrivalSpeed="16.29" duration="153.00" routeLength="1495.58" waitingTime="44.00" waitingCount="2" stopTime="0.00" timeLoss="63.42" rerouteNo="0" devices="tripinfo_32" vType="DEFAULT_VEHTYPE" speedFactor="1.21" vaporized=""/>
    <tripinfo id="35" depart="180.00" departLane="top0A3_0" departPos="5.10" departSpeed="0.00" departDelay="0.00" arrival="328.00" arrivalLane="A1left1_0" arrivalPos="286.40" arrivalSpeed="14.94" duration="148.00" routeLength="1177.07" waitingTime="51.00" waitingCount="2" stopTime="0.00" timeLoss="73.40" rerouteNo="0" devices="tripinfo_35" vType="DEFAULT_VEHTYPE" speedFactor="1.15" vaporized=""/>
    <tripinfo id="0" depart="0.00" departLane="top0A3_0" departPos="5.10" departSpeed="0.00" departDelay="0.00" arrival="329.00" arrivalLane="D0right0_0" arrivalPos="286.40" arrivalSpeed="13.59" duration="329.00" routeLength="2395.86" waitingTime="111.00" waitingCount="6" stopTime="0.00" timeLoss="154.81" rerouteNo="0" devices="tripinfo_0" vType="DEFAULT_VEHTYPE" speedFactor="0.99" vaporized=""/>
    <tripinfo id="23" depart="123.00" departLane="right0D0_0" departPos="5.10" departSpeed="0.00" departDelay="0.00" arrival="338.00" arrivalLane="B0bottom1_0" arrivalPos="286.40" arrivalSpeed="14.67" duration="215.00" routeLength="1197.89" waitingTime="111.00" waitingCount="3" stopTime="0.00" timeLoss="135.34" rerouteNo="0" devices="tripinfo_23" vType="DEFAULT_VEHTYPE" speedFactor="1.10" vaporized=""/>
    <tripinfo id="59" depart="287.00" departLane="right3D3_0" departPos="5.10" departSpeed="0.00" departDelay="0.00" arrival="338.00" arrivalLane="D3top3_0" arrivalPos="286.40" arrivalSpeed="15.10" duration="51.00" routeLength="576.73" waitingTime="1.00" waitingCount="1" stopTime="0.00" timeLoss="14.13" rerouteNo="0" devices="tripinfo_59" vType="DEFAULT_VEHTYPE" speedFactor="1.16" vaporized=""/>
    <tripinfo id="15" depart="69.00" departLane="left3A3_0" departPos="5.10" departSpeed="0.00" departDelay="0.00" arrival="340.00" arrivalLane="C3top2_0" arrivalPos="286.40" arrivalSpeed="13.18" duration="271.00" routeLength="1197.89" waitingTime="159.00" waitingCount="3" stopTime="0.00" timeLoss="184.37" rerouteNo="0" devices="tripinfo_15" vType="DEFAULT_VEHTYPE" speedFactor="1.01" vaporized=""/>
    <tripinfo id="4" depart="25.00" departLane="bottom3D0_0" departPos="5.10" departSpeed="0.00" departDelay="0.00" arrival="343.00" arrivalLane="B3top1_0" arrivalPos="286.40" arrivalSpeed="12.42" duration="318.00" routeLength="2080.05" waitingTime="124.00" waitingCount="5" stopTime="0.00" timeLoss="162.70" rerouteNo="0" devices="tripinfo_4" vType="DEFAULT_VEHTYPE" speedFactor="0.97" vaporized=""/>
    <tripinfo id="41" depart="209.00" departLane="left3A3_0" departPos="5.10" departSpeed="0.00" departDelay="0.00" arrival="352.00" arrivalLane="A0left0_0" arrivalPos="286.40" arrivalSpeed="15.04" duration="143.00" routeLength="1461.60" waitingTime="18.00" waitingCount="3" stopTime="0.00" timeLoss="44.78" rerouteNo="0" devices="tripinfo_41" vType="DEFAULT_VEHTYPE" speedFactor="1.08" vaporized=""/>
    <tripinfo id="3" depart="19.00" departLane="bottom1B0_0" departPos="5.10" departSpeed="0.00" departDelay="0.00" arrival="361.00" arrivalLane="A3left3_0" arrivalPos="286.40" arrivalSpeed="11.81" duration="342.00" routeLength="1795.52" waitingTime="172.00" waitingCount="4" stopTime="0.00" timeLoss="202.05" rerouteNo="0" devices="tripinfo_3" vType="DEFAULT_VEHTYPE" speedFactor="0.93" vaporized=""/>
    <tripinfo id="56" depart="283.00" departLane="right2D2_0" departPos="5.10" departSpeed="0.00" departDelay="0.00" arrival="369.00" arrivalLane="D3right3_0" arrivalPos="286.40" arrivalSpeed="10.96" duration="86.00" routeLength="858.56" waitingTime="1.00" waitingCount="1" stopTime="0.00" timeLoss="14.72" rerouteNo="0" devices="tripinfo_56" vType="DEFAULT_VEHTYPE" speedFactor="0.88" vaporized=""/>
    <tripinfo id="42" depart="216.00" departLane="left1A1_0" departPos="5.10" departSpeed="0.00" departDelay="0.00" arrival="374.00" arrivalLane="A2left2_0" arrivalPos="286.40" arrivalSpeed="12.35" duration="158.00" routeLength="894.86" waitingTime="80.00" waitingCount="1" stopTime="0.00" timeLoss="90.26" rerouteNo="0" devices="tripinfo_42" vType="DEFAULT_VEHTYPE" speedFactor="0.97" vaporized=""/>
    <tripinfo id="34" depart="173.00" departLane="bottom3D0_0" departPos="5.10" departSpeed="0.00" departDelay="0.00" arrival="384.00" arrivalLane="C3top2_1" arrivalPos="286.40" arrivalSpeed="13.02" duration="211.00" routeLength="1782.59" waitingTime="41.00" waitingCount="3" stopTime="0.00" timeLoss="72.87" rerouteNo="0" devices="tripinfo_34" vType="DEFAULT_VEHTYPE" speedFactor="0.94" vaporized=""/>
    <tripinfo id="27" depart="156.00" departLane="right0D0_0" departPos="5.10" departSpeed="0.00" departDelay="0.00" arrival="388.00" arrivalLane="C3top2_0" arrivalPos="286.40" arrivalSpeed="9.09" duration="232.00" routeLength="1780.11" waitingTime="30.00" waitingCount="3" stopTime="0.00" timeLoss="57.02" rerouteNo="0" devices="tripinfo_27" vType="DEFAULT_VEHTYPE" speedFactor="0.74" vaporized=""/>
    <tripinfo id="16" depart="75.00" departLane="left0A0_0" departPos="5.10" departSpeed="0.00" departDelay="0.00" arrival="397.00" arrivalLane="D3top3_0" arrivalPos="286.40" arrivalSpeed="14.44" duration="322.00" routeLength="2395.86" waitingTime="132.00" waitingCount="4" stopTime="0.00" timeLoss="166.56" rerouteNo="0" devices="tripinfo_16" vType="DEFAULT_VEHTYPE" speedFactor="1.12" vaporized=""/>
    <tripinfo id="29" depart="158.00" departLane="left2A2_0" departPos="5.10" departSpeed="0.00" departDelay="0.00" arrival="397.00" arrivalLane="D0right0_0" arrivalPos="286.40" arrivalSpeed="11.71" duration="239.00" routeLength="2082.76" waitingTime="54.00" waitingCount="2" stopTime="0.00" timeLoss="74.60" rerouteNo="0" devices="tripinfo_29" vType="DEFAULT_VEHTYPE" speedFactor="0.92" vaporized=""/>
    <tripinfo id="30" depart="162.00" departLane="top0A3_0" departPos="5.10" departSpeed="0.00" departDelay="0.00" arrival="408.00" arrivalLane="D1right1_0" arrivalPos="286.40" arrivalSpeed="14.47" duration="246.00" routeLength="2095.69" waitingTime="71.00" waitingCount="4" stopTime="0.00" timeLoss="105.57" rerouteNo="0" devices="tripinfo_30" vType="DEFAULT_VEHTYPE" speedFactor="1.08" vaporized=""/>
    <tripinfo id="9" depart="36.00" departLane="top0A3_0" departPos="5.10" departSpeed="0.00" departDelay="0.00" arrival="430.00" arrivalLane="D0right0_0" arrivalPos="286.40" arrivalSpeed="12.30" duration="394.00" routeLength="2395.86" waitingTime="174.00" waitingCount="5" stopTime="0.00" timeLoss="214.06" rerouteNo="0" devices="tripinfo_9" vType="DEFAULT_VEHTYPE" speedFactor="0.96" vaporized=""/>
    <tripinfo id="20" depart="91.00" departLane="right1D1_0" departPos="5.10" departSpeed="0.00" departDelay="0.00" arrival="430.00" arrivalLane="B3top1_0" arrivalPos="286.40" arrivalSpeed="13.03" duration="339.00" routeLength="1780.11" waitingTime="171.00" waitingCount="3" stopTime="0.00" timeLoss="202.20" rerouteNo="0" devices="tripinfo_20" vType="DEFAULT_VEHTYPE" speedFactor="0.94" vaporized=""/>
    <tripinfo id="46" depart="225.00" departLane="top3D3_0" departPos="5.10" departSpeed="0.00" departDelay="0.00" arrival="431.00" arrivalLane="A3left3_0" arrivalPos="286.40" arrivalSpeed="12.58" duration="206.00" routeLength="1479.94" waitingTime="59.00" waitingCount="4" stopTime="0.00" timeLoss="87.99" rerouteNo="0" devices="tripinfo_46" vType="DEFAULT_VEHTYPE" speedFactor="0.91" vaporized=""/>
    <tripinfo id="44" depart="222.00" departLane="bottom3D0_0" departPos="5.10" departSpeed="0.00" departDelay="0.00" arrival="436.00" arrivalLane="B0bottom1_0" arrivalPos="286.40" arrivalSpeed="15.56" duration="214.00" routeLength="1197.66" waitingTime="110.00" waitingCount="3" stopTime="0.00" timeLoss="138.52" rerouteNo="0" devices="tripinfo_44" vType="DEFAULT_VEHTYPE" speedFactor="1.16" vaporized=""/>
    <tripinfo id="37" depart="185.00" departLane="left1A1_0" departPos="5.10" departSpeed="0.00" departDelay="0.00" arrival="459.00" arrivalLane="C3top2_0" arrivalPos="286.40" arrivalSpeed="13.06" duration="274.00" routeLength="1795.52" waitingTime="109.00" waitingCount="4" stopTime="0.00" timeLoss="141.85" rerouteNo="0" devices="tripinfo_37" vType="DEFAULT_VEHTYPE" speedFactor="0.98" vaporized=""/>
    <tripinfo id="22" depart="122.00" departLane="bottom2C0_0" departPos="5.10" departSpeed="0.00" departDelay="0.00" arrival="460.00" arrivalLane="A3top0_0" arrivalPos="286.40" arrivalSpeed="12.99" duration="338.00" routeLength="2080.05" waitingTime="139.00" waitingCount="6" stopTime="0.00" timeLoss="181.55" rerouteNo="0" devices="tripinfo_22" vType="DEFAULT_VEHTYPE" speedFactor="0.97" vaporized=""/>
    <tripinfo id="74" depart="341.00" departLane="bottom3D0_0" departPos="5.10" departSpeed="0.00" departDelay="0.00" arrival="463.00" arrivalLane="D2right2_0" arrivalPos="286.40" arrivalSpeed="12.55" duration="122.00" routeLength="1177.07" waitingTime="14.00" waitingCount="2" stopTime="0.00" timeLoss="30.42" rerouteNo="0" devices="tripinfo_74" vType="DEFAULT_VEHTYPE" speedFactor="0.94" vaporized=""/>
    <tripinfo id="36" depart="185.00" departLane="bottom3D0_0" departPos="5.10" departSpeed="0.00" departDelay="0.00" arrival="470.00" arrivalLane="A0bottom0_0" arrivalPos="286.40" arrivalSpeed="13.44" duration="285.00" routeLength="1497.83" waitingTime="143.00" waitingCount="4" stopTime="0.00" timeLoss="172.63" rerouteNo="0" devices="tripinfo_36" vType="DEFAULT_VEHTYPE" speedFactor="0.97" vaporized=""/>
    <tripinfo id="61" depart="295.00" departLane="right3D3_0" departPos="5.10" departSpeed="0.00" departDelay="0.00" arrival="486.00" arrivalLane="A3left3_0" arrivalPos="286.40" arrivalSpeed="11.92" duration="191.00" routeLength="1495.58" waitingTime="58.00" waitingCount="1" stopTime="0.00" timeLoss="72.06" rerouteNo="0" devices="tripinfo_61" vType="DEFAULT_VEHTYPE" speedFactor="0.91" vaporized=""/>
    <tripinfo id="38" depart="199.00" departLane="left0A0_0" departPos="5.10" departSpeed="0.00" departDelay="0.00" arrival="493.00" arrivalLane="D3top3_0" arrivalPos="286.40" arrivalSpeed="12.76" duration="294.00" routeLength="2395.86" waitingTime="70.00" waitingCount="6" stopTime="0.00" timeLoss="114.16" rerouteNo="0" devices="tripinfo_38" vType="DEFAULT_VEHTYPE" speedFactor="0.96" vaporized=""/>
    <tripinfo id="53" depart="259.00" departLane="top1B3_0" departPos="5.10" departSpeed="0.00" departDelay="0.00" arrival="497.00" arrivalLane="A0left0_0" arrivalPos="286.40" arrivalSpeed="14.40" duration="238.00" routeLength="1780.11" waitingTime="79.00" waitingCount="5" stopTime="0.00" timeLoss="118.41" rerouteNo="0" devices="tripinfo_53" vType="DEFAULT_VEHTYPE" speedFactor="1.08" vaporized=""/>
    <tripinfo id="67" depart="324.00" departLane="left1A1_0" departPos="5.10" departSpeed="0.00" departDelay="0.00" arrival="499.00" arrivalLane="D1right1_0" arrivalPos="286.40" arrivalSpeed="14.28" duration="175.00" routeLength="1495.58" waitingTime="41.00" waitingCount="4" stopTime="0.00" timeLoss="71.08" rerouteNo="0" devices="tripinfo_67" vType="DEFAULT_VEHTYPE" speedFactor="1.05" vaporized=""/>
    <tripinfo id="52" depart="259.00" departLane="left1A1_0" departPos="5.10" departSpeed="0.00" departDelay="0.00" arrival="521.00" arrivalLane="A3left3_0" arrivalPos="286.40" arrivalSpeed="11.65" duration="262.00" routeLength="1197.66" waitingTime="144.00" waitingCount="3" stopTime="0.00" timeLoss="167.17" rerouteNo="0" devices="tripinfo_52" vType="DEFAULT_VEHTYPE" speedFactor="0.92" vaporized=""/>
    <tripinfo id="84" depart="409.00" departLane="right1D1_0" departPos="5.10" departSpeed="0.00" departDelay="0.00" arrival="522.00" arrivalLane="D3right3_0" arrivalPos="286.40" arrivalSpeed="13.03" duration="113.00" routeLength="1161.43" waitingTime="13.00" waitingCount="1" stopTime="0.00" timeLoss="28.99" rerouteNo="0" devices="tripinfo_84" vType="DEFAULT_VEHTYPE" speedFactor="1.01" vaporized=""/>
    <tripinfo id="47" depart="232.00" departLane="left0A0_0" departPos="5.10" departSpeed="0.00" departDelay="0.00" arrival="523.00" arrivalLane="A3left3_0" arrivalPos="286.40" arrivalSpeed="12.25" duration="291.00" routeLength="1497.83" waitingTime="141.00" waitingCount="4" stopTime="0.00" timeLoss="172.08" rerouteNo="0" devices="tripinfo_47" vType="DEFAULT_VEHTYPE" speedFactor="0.92" vaporized=""/>
    <tripinfo id="62" depart="297.00" departLane="left3A3_0" departPos="5.10" departSpeed="0.00" departDelay="0.00" arrival="523.00" arrivalLane="A3left3_1" arrivalPos="286.40" arrivalSpeed="13.21" duration="226.00" routeLength="1748.75" waitingTime="63.00" waitingCount="5" stopTime="0.00" timeLoss="98.47" rerouteNo="0" devices="tripinfo_62" vType="DEFAULT_VEHTYPE" speedFactor="1.00" vaporized=""/>
    <tripinfo id="72" depart="337.00" departLane="left1A1_0" departPos="5.10" departSpeed="0.00" departDelay="0.00" arrival="527.00" arrivalLane="B3top1_0" arrivalPos="286.40" arrivalSpeed="11.94" duration="190.00" routeLength="1495.35" waitingTime="48.00" waitingCount="1" stopTime="0.00" timeLoss="68.53" rerouteNo="0" devices="tripinfo_72" vType="DEFAULT_VEHTYPE" speedFactor="0.89" vaporized=""/>
    <tripinfo id="76" depart="355.00" departLane="left1A1_0" departPos="5.10" departSpeed="0.00" departDelay="0.00" arrival="527.00" arrivalLane="A3left3_0" arrivalPos="286.40" arrivalSpeed="12.26" duration="172.00" routeLength="1197.66" waitingTime="55.00" waitingCount="3" stopTime="0.00" timeLoss="79.39" rerouteNo="0" devices="tripinfo_76" vType="DEFAULT_VEHTYPE" speedFactor="0.94" vaporized=""/>
    <tripinfo id="93" depart="451.00" departLane="right0D0_0" departPos="5.10" departSpeed="0.00" departDelay="0.00" arrival="538.00" arrivalLane="D0bottom3_0" arrivalPos="286.40" arrivalSpeed="14.60" duration="87.00" routeLength="597.55" waitingTime="36.00" waitingCount="1" stopTime="0.00" timeLoss="46.26" rerouteNo="0" devices="tripinfo_93" vType="DEFAULT_VEHTYPE" speedFactor="1.08" vaporized=""/>
    <tripinfo id="95" depart="457.00" departLane="right2D2_0" departPos="5.10" departSpeed="0.00" departDelay="0.00" arrival="538.00" arrivalLane="D3right3_0" arrivalPos="286.40" arrivalSpeed="12.95" duration="81.00" routeLength="858.56" waitingTime="2.00" waitingCount="2" stopTime="0.00" timeLoss="15.67" rerouteNo="0" devices="tripinfo_95" vType="DEFAULT_VEHTYPE" speedFactor="0.96" vaporized=""/>
    <tripinfo id="79" depart="394.00" departLane="left2A2_0" departPos="5.10" departSpeed="0.00" departDelay="0.00" arrival="548.00" arrivalLane="A2left2_1" arrivalPos="286.40" arrivalSpeed="15.95" duration="154.00" routeLength="1748.75" waitingTime="16.00" waitingCount="3" stopTime="0.00" timeLoss="44.32" rerouteNo="0" devices="tripinfo_79" vType="DEFAULT_VEHTYPE" speedFactor="1.18" vaporized=""/>
    <tripinfo id="43" depart="218.00" departLane="top1B3_0" departPos="5.10" departSpeed="0.00" departDelay="0.00" arrival="549.00" arrivalLane="D3right3_0" arrivalPos="286.40" arrivalSpeed="13.32" duration="331.00" routeLength="1195.18" waitingTime="219.00" waitingCount="3" stopTime="0.00" timeLoss="244.37" rerouteNo="0" devices="tripinfo_43" vType="DEFAULT_VEHTYPE" speedFactor="1.00" vaporized=""/>
    <tripinfo id="99" depart="469.00" departLane="right0D0_0" departPos="5.10" departSpeed="0.00" departDelay="0.00" arrival="549.00" arrivalLane="C0bottom2_0" arrivalPos="286.40" arrivalSpeed="14.03" duration="80.00" routeLength="897.72" waitingTime="5.00" waitingCount="1" stopTime="0.00" timeLoss="16.54" rerouteNo="0" devices="tripinfo_99" vType="DEFAULT_VEHTYPE" speedFactor="1.04" vaporized=""/>
    <tripinfo id="57" depart="283.00" departLane="right0D0_0" departPos="5.10" departSpeed="0.00" departDelay="0.00" arrival="550.00" arrivalLane="A2left2_0" arrivalPos="286.40" arrivalSpeed="12.41" duration="267.00" routeLength="2082.76" waitingTime="71.00" waitingCount="4" stopTime="0.00" timeLoss="112.25" rerouteNo="0" devices="tripinfo_57" vType="DEFAULT_VEHTYPE" speedFactor="0.98" vaporized=""/>
    <tripinfo id="49" depart="236.00" departLane="top3D3_0" departPos="5.10" departSpeed="0.00" departDelay="0.00" arrival="551.00" arrivalLane="B0bottom1_0" arrivalPos="286.40" arrivalSpeed="12.02" duration="315.00" routeLength="2082.76" waitingTime="118.00" waitingCount="5" stopTime="0.00" timeLoss="154.25" rerouteNo="0" devices="tripinfo_49" vType="DEFAULT_VEHTYPE" speedFactor="0.94" vaporized=""/>
    <tripinfo id="73" depart="338.00" departLane="top1B3_0" departPos="5.10" departSpeed="0.00" departDelay="0.00" arrival="562.00" arrivalLane="D1right1_0" arrivalPos="286.40" arrivalSpeed="13.06" duration="224.00" routeLength="1795.52" waitingTime="62.00" waitingCount="4" stopTime="0.00" timeLoss="93.37" rerouteNo="0" devices="tripinfo_73" vType="DEFAULT_VEHTYPE" speedFactor="1.00" vaporized=""/>
    <tripinfo id="75" depart="346.00" departLane="top1B3_0" departPos="5.10" departSpeed="0.00" departDelay="0.00" arrival="565.00" arrivalLane="B3top1_0" arrivalPos="286.40" arrivalSpeed="10.96" duration="219.00" routeLength="1748.75" waitingTime="27.00" waitingCount="5" stopTime="0.00" timeLoss="59.88" rerouteNo="0" devices="tripinfo_75" vType="DEFAULT_VEHTYPE" speedFactor="0.81" vaporized=""/>
    <tripinfo id="113" depart="513.00" departLane="right3D3_0" departPos="5.10" departSpeed="0.00" departDelay="0.00" arrival="568.00" arrivalLane="D3top3_0" arrivalPos="286.40" arrivalSpeed="12.35" duration="55.00" routeLength="576.73" waitingTime="1.00" waitingCount="1" stopTime="0.00" timeLoss="11.70" rerouteNo="0" devices="tripinfo_113" vType="DEFAULT_VEHTYPE" speedFactor="0.97" vaporized=""/>
    <tripinfo id="48" depart="236.00" departLane="bottom2C0_0" departPos="5.10" departSpeed="0.00" departDelay="0.00" arrival="571.00" arrivalLane="A2left2_1" arrivalPos="286.40" arrivalSpeed="12.60" duration="335.00" routeLength="1795.52" waitingTime="172.00" waitingCount="3" stopTime="0.00" timeLoss="203.39" rerouteNo="0" devices="tripinfo_48" vType="DEFAULT_VEHTYPE" speedFactor="0.99" vaporized=""/>