<?xml version="1.0" encoding="UTF-8"?>

<!-- generated on 12/10/21 14:07:06 by Eclipse SUMO sumo Version 1.7.0
<configuration xmlns:xsi="http://www.w3.org/2001/XMLSchema-instance" xsi:noNamespaceSchemaLocation="http://sumo.dlr.de/xsd/sumoConfiguration.xsd">

    <input>
        <net-file value="C:\Users\longs\Desktop\RESCO-main\environments\grid4x4\grid4x4.net.xml"/>
        <route-files value="C:\Users\longs\Desktop\RESCO-main\environments\grid4x4\grid4x4_57.rou.xml"/>
    </input>

    <output>
        <tripinfo-output value="C:\Users\longs\Desktop\RESCO-main\logs\STOCHASTIC-tr1-grid4x4-0-mplight-wait\tripinfo_57.xml"/>
        <tripinfo-output.write-unfinished value="true"/>
    </output>

    <processing>
        <time-to-teleport value="-1"/>
    </processing>

    <report>
        <no-warnings value="true"/>
        <no-step-log value="true"/>
    </report>

    <traci_server>
        <remote-port value="59649"/>
    </traci_server>

    <random_number>
        <random value="true"/>
    </random_number>

</configuration>
-->

<tripinfos xmlns:xsi="http://www.w3.org/2001/XMLSchema-instance" xsi:noNamespaceSchemaLocation="http://sumo.dlr.de/xsd/tripinfo_file.xsd">
    <tripinfo id="9" depart="36.00" departLane="right1D1_0" departPos="5.10" departSpeed="0.00" departDelay="0.00" arrival="116.00" arrivalLane="D2right2_0" arrivalPos="286.40" arrivalSpeed="13.81" duration="80.00" routeLength="858.56" waitingTime="2.00" waitingCount="2" stopTime="0.00" timeLoss="20.34" rerouteNo="0" devices="tripinfo_9" vType="DEFAULT_VEHTYPE" speedFactor="1.06" vaporized=""/>
    <tripinfo id="13" depart="45.00" departLane="bottom3D0_0" departPos="5.10" departSpeed="0.00" departDelay="0.00" arrival="120.00" arrivalLane="D1right1_0" arrivalPos="286.40" arrivalSpeed="13.94" duration="75.00" routeLength="876.90" waitingTime="1.00" waitingCount="1" stopTime="0.00" timeLoss="13.30" rerouteNo="0" devices="tripinfo_13" vType="DEFAULT_VEHTYPE" speedFactor="1.04" vaporized=""/>
    <tripinfo id="17" depart="50.00" departLane="left2A2_0" departPos="5.10" departSpeed="0.00" departDelay="0.00" arrival="160.00" arrivalLane="B3top1_0" arrivalPos="286.40" arrivalSpeed="12.59" duration="110.00" routeLength="1195.18" waitingTime="3.00" waitingCount="1" stopTime="0.00" timeLoss="21.72" rerouteNo="0" devices="tripinfo_17" vType="DEFAULT_VEHTYPE" speedFactor="0.98" vaporized=""/>
    <tripinfo id="6" depart="33.00" departLane="top2C3_0" departPos="5.10" departSpeed="0.00" departDelay="0.00" arrival="167.00" arrivalLane="D1right1_0" arrivalPos="286.40" arrivalSpeed="14.82" duration="134.00" routeLength="1495.35" waitingTime="13.00" waitingCount="1" stopTime="0.00" timeLoss="33.32" rerouteNo="0" devices="tripinfo_6" vType="DEFAULT_VEHTYPE" speedFactor="1.08" vaporized=""/>
    <tripinfo id="24" depart="93.00" departLane="right2D2_0" departPos="5.10" departSpeed="0.00" departDelay="0.00" arrival="167.00" arrivalLane="D3right3_0" arrivalPos="286.40" arrivalSpeed="13.24" duration="74.00" routeLength="858.56" waitingTime="0.00" waitingCount="0" stopTime="0.00" timeLoss="12.64" rerouteNo="0" devices="tripinfo_24" vType="DEFAULT_VEHTYPE" speedFactor="1.04" vaporized=""/>
    <tripinfo id="2" depart="13.00" departLane="top1B3_0" departPos="5.10" departSpeed="0.00" departDelay="0.00" arrival="169.00" arrivalLane="A2left2_0" arrivalPos="286.40" arrivalSpeed="13.10" duration="156.00" routeLength="1179.77" waitingTime="53.00" waitingCount="2" stopTime="0.00" timeLoss="70.83" rerouteNo="0" devices="tripinfo_2" vType="DEFAULT_VEHTYPE" speedFactor="1.01" vaporized=""/>
    <tripinfo id="14" depart="45.00" departLane="top0A3_0" departPos="5.10" departSpeed="0.00" departDelay="0.00" arrival="188.00" arrivalLane="B3top1_0" arrivalPos="286.40" arrivalSpeed="13.61" duration="143.00" routeLength="894.86" waitingTime="65.00" waitingCount="2" stopTime="0.00" timeLoss="81.15" rerouteNo="0" devices="tripinfo_14" vType="DEFAULT_VEHTYPE" speedFactor="1.07" vaporized=""/>
    <tripinfo id="18" depart="50.00" departLane="bottom1B0_0" departPos="5.10" departSpeed="0.00" departDelay="0.00" arrival="196.00" arrivalLane="D0right0_0" arrivalPos="286.40" arrivalSpeed="16.51" duration="146.00" routeLength="1179.77" waitingTime="53.00" waitingCount="2" stopTime="0.00" timeLoss="73.71" rerouteNo="0" devices="tripinfo_18" vType="DEFAULT_VEHTYPE" speedFactor="1.20" vaporized=""/>
    <tripinfo id="10" depart="39.00" departLane="left0A0_0" departPos="5.10" departSpeed="0.00" departDelay="0.00" arrival="235.00" arrivalLane="C0bottom2_0" arrivalPos="286.40" arrivalSpeed="12.22" duration="196.00" routeLength="1177.07" waitingTime="85.00" waitingCount="2" stopTime="0.00" timeLoss="104.77" rerouteNo="0" devices="tripinfo_10" vType="DEFAULT_VEHTYPE" speedFactor="0.94" vaporized=""/>
    <tripinfo id="23" depart="73.00" departLane="left2A2_0" departPos="5.10" departSpeed="0.00" departDelay="0.00" arrival="236.00" arrivalLane="C3top2_0" arrivalPos="286.40" arrivalSpeed="11.74" duration="163.00" routeLength="1495.35" waitingTime="27.00" waitingCount="2" stopTime="0.00" timeLoss="46.16" rerouteNo="0" devices="tripinfo_23" vType="DEFAULT_VEHTYPE" speedFactor="0.93" vaporized=""/>
    <tripinfo id="3" depart="28.00" departLane="top3D3_0" departPos="5.10" departSpeed="0.00" departDelay="0.00" arrival="239.00" arrivalLane="C0bottom2_0" arrivalPos="286.40" arrivalSpeed="13.30" duration="211.00" routeLength="1782.72" waitingTime="46.00" waitingCount="5" stopTime="0.00" timeLoss="83.69" rerouteNo="0" devices="tripinfo_3" vType="DEFAULT_VEHTYPE" speedFactor="1.02" vaporized=""/>
    <tripinfo id="12" depart="42.00" departLane="top3D3_0" departPos="5.10" departSpeed="0.00" departDelay="0.00" arrival="241.00" arrivalLane="C0bottom2_0" arrivalPos="286.40" arrivalSpeed="13.11" duration="199.00" routeLength="1782.72" waitingTime="37.00" waitingCount="4" stopTime="0.00" timeLoss="72.05" rerouteNo="0" devices="tripinfo_12" vType="DEFAULT_VEHTYPE" speedFactor="1.02" vaporized=""/>
    <tripinfo id="44" depart="156.00" departLane="top1B3_0" departPos="5.10" departSpeed="0.00" departDelay="0.00" arrival="252.00" arrivalLane="C3top2_0" arrivalPos="286.40" arrivalSpeed="11.70" duration="96.00" routeLength="894.86" waitingTime="8.00" waitingCount="1" stopTime="0.00" timeLoss="22.33" rerouteNo="0" devices="tripinfo_44" vType="DEFAULT_VEHTYPE" speedFactor="0.89" vaporized=""/>
    <tripinfo id="27" depart="103.00" departLane="left1A1_0" departPos="5.10" departSpeed="0.00" departDelay="0.00" arrival="254.00" arrivalLane="B3top1_0" arrivalPos="286.40" arrivalSpeed="16.83" duration="151.00" routeLength="1495.35" waitingTime="37.00" waitingCount="3" stopTime="0.00" timeLoss="66.24" rerouteNo="0" devices="tripinfo_27" vType="DEFAULT_VEHTYPE" speedFactor="1.28" vaporized=""/>
    <tripinfo id="16" depart="47.00" departLane="left2A2_0" departPos="5.10" departSpeed="0.00" departDelay="0.00" arrival="259.00" arrivalLane="D0bottom3_0" arrivalPos="286.40" arrivalSpeed="13.21" duration="212.00" routeLength="2080.28" waitingTime="33.00" waitingCount="3" stopTime="0.00" timeLoss="63.18" rerouteNo="0" devices="tripinfo_16" vType="DEFAULT_VEHTYPE" speedFactor="1.02" vaporized=""/>
    <tripinfo id="42" depart="153.00" departLane="top2C3_0" departPos="5.10" departSpeed="0.00" departDelay="0.00" arrival="267.00" arrivalLane="D3top3_0" arrivalPos="286.40" arrivalSpeed="15.04" duration="114.00" routeLength="894.86" waitingTime="37.00" waitingCount="2" stopTime="0.00" timeLoss="57.69" rerouteNo="0" devices="tripinfo_42" vType="DEFAULT_VEHTYPE" speedFactor="1.17" vaporized=""/>
    <tripinfo id="29" depart="110.00" departLane="top1B3_0" departPos="5.10" departSpeed="0.00" departDelay="0.00" arrival="278.00" arrivalLane="A2left2_0" arrivalPos="286.40" arrivalSpeed="13.60" duration="168.00" routeLength="1179.77" waitingTime="66.00" waitingCount="2" stopTime="0.00" timeLoss="87.64" rerouteNo="0" devices="tripinfo_29" vType="DEFAULT_VEHTYPE" speedFactor="1.07" vaporized=""/>
    <tripinfo id="37" depart="141.00" departLane="left0A0_0" departPos="5.10" departSpeed="0.00" departDelay="0.00" arrival="286.00" arrivalLane="A3left3_0" arrivalPos="286.40" arrivalSpeed="12.98" duration="145.00" routeLength="1497.83" waitingTime="13.00" waitingCount="1" stopTime="0.00" timeLoss="28.44" rerouteNo="0" devices="tripinfo_37" vType="DEFAULT_VEHTYPE" speedFactor="0.94" vaporized=""/>
    <tripinfo id="8" depart="34.00" departLane="right2D2_0" departPos="5.10" departSpeed="0.00" departDelay="0.00" arrival="297.00" arrivalLane="A3top0_0" arrivalPos="286.40" arrivalSpeed="15.10" duration="263.00" routeLength="1780.11" waitingTime="109.00" waitingCount="5" stopTime="0.00" timeLoss="148.18" rerouteNo="0" devices="tripinfo_8" vType="DEFAULT_VEHTYPE" speedFactor="1.13" vaporized=""/>
    <tripinfo id="28" depart="106.00" departLane="top0A3_0" departPos="5.10" departSpeed="0.00" departDelay="0.00" arrival="297.00" arrivalLane="A2left2_0" arrivalPos="286.40" arrivalSpeed="13.36" duration="191.00" routeLength="876.90" waitingTime="110.00" waitingCount="2" stopTime="0.00" timeLoss="126.90" rerouteNo="0" devices="tripinfo_28" vType="DEFAULT_VEHTYPE" speedFactor="0.99" vaporized=""/>
    <tripinfo id="48" depart="176.00" departLane="left2A2_0" departPos="5.10" departSpeed="0.00" departDelay="0.00" arrival="297.00" arrivalLane="B3top1_0" arrivalPos="286.40" arrivalSpeed="13.95" duration="121.00" routeLength="1195.18" waitingTime="17.00" waitingCount="3" stopTime="0.00" timeLoss="41.51" rerouteNo="0" devices="tripinfo_48" vType="DEFAULT_VEHTYPE" speedFactor="1.09" vaporized=""/>
    <tripinfo id="0" depart="2.00" departLane="bottom0A0_0" departPos="5.10" departSpeed="0.00" departDelay="0.00" arrival="299.00" arrivalLane="A2left2_1" arrivalPos="286.40" arrivalSpeed="13.40" duration="297.00" routeLength="1197.89" waitingTime="190.00" waitingCount="3" stopTime="0.00" timeLoss="212.17" rerouteNo="0" devices="tripinfo_0" vType="DEFAULT_VEHTYPE" speedFactor="1.03" vaporized=""/>
    <tripinfo id="22" depart="67.00" departLane="bottom0A0_0" departPos="5.10" departSpeed="0.00" departDelay="0.00" arrival="302.00" arrivalLane="A2left2_0" arrivalPos="286.40" arrivalSpeed="13.11" duration="235.00" routeLength="1197.89" waitingTime="121.00" waitingCount="3" stopTime="0.00" timeLoss="145.80" rerouteNo="0" devices="tripinfo_22" vType="DEFAULT_VEHTYPE" speedFactor="0.97" vaporized=""/>
    <tripinfo id="30" depart="117.00" departLane="right2D2_0" departPos="5.10" departSpeed="0.00" departDelay="0.00" arrival="307.00" arrivalLane="D2right2_0" arrivalPos="286.40" arrivalSpeed="14.42" duration="190.00" routeLength="1748.75" waitingTime="43.00" waitingCount="3" stopTime="0.00" timeLoss="74.56" rerouteNo="0" devices="tripinfo_30" vType="DEFAULT_VEHTYPE" speedFactor="1.12" vaporized=""/>
    <tripinfo id="43" depart="154.00" departLane="right0D0_0" departPos="5.10" departSpeed="0.00" departDelay="0.00" arrival="308.00" arrivalLane="B0bottom1_0" arrivalPos="286.40" arrivalSpeed="14.21" duration="154.00" routeLength="1197.89" waitingTime="62.00" waitingCount="1" stopTime="0.00" timeLoss="73.87" rerouteNo="0" devices="tripinfo_43" vType="DEFAULT_VEHTYPE" speedFactor="1.09" vaporized=""/>
    <tripinfo id="5" depart="31.00" departLane="top1B3_0" departPos="5.10" departSpeed="0.00" departDelay="0.00" arrival="309.00" arrivalLane="C0bottom2_0" arrivalPos="286.40" arrivalSpeed="13.61" duration="278.00" routeLength="1782.59" waitingTime="118.00" waitingCount="3" stopTime="0.00" timeLoss="150.28" rerouteNo="0" devices="tripinfo_5" vType="DEFAULT_VEHTYPE" speedFactor="1.02" vaporized=""/>
    <tripinfo id="15" depart="46.00" departLane="right1D1_0" departPos="5.10" departSpeed="0.00" departDelay="0.00" arrival="309.00" arrivalLane="C0bottom2_1" arrivalPos="286.40" arrivalSpeed="15.43" duration="263.00" routeLength="1195.18" waitingTime="163.00" waitingCount="3" stopTime="0.00" timeLoss="186.18" rerouteNo="0" devices="tripinfo_15" vType="DEFAULT_VEHTYPE" speedFactor="1.14" vaporized=""/>
    <tripinfo id="51" depart="185.00" departLane="right2D2_0" departPos="5.10" departSpeed="0.00" departDelay="0.00" arrival="310.00" arrivalLane="D0right0_0" arrivalPos="286.40" arrivalSpeed="13.01" duration="125.00" routeLength="1197.66" waitingTime="22.00" waitingCount="2" stopTime="0.00" timeLoss="36.67" rerouteNo="0" devices="tripinfo_51" vType="DEFAULT_VEHTYPE" speedFactor="1.00" vaporized=""/>
    <tripinfo id="7" depart="34.00" departLane="bottom2C0_0" departPos="5.10" departSpeed="0.00" departDelay="0.00" arrival="311.00" arrivalLane="A3left3_0" arrivalPos="286.40" arrivalSpeed="12.18" duration="277.00" routeLength="2095.69" waitingTime="82.00" waitingCount="4" stopTime="0.00" timeLoss="116.45" rerouteNo="0" devices="tripinfo_7" vType="DEFAULT_VEHTYPE" speedFactor="0.95" vaporized=""/>
    <tripinfo id="53" depart="188.00" departLane="left0A0_0" departPos="5.10" departSpeed="0.00" departDelay="0.00" arrival="311.00" arrivalLane="A1left1_0" arrivalPos="286.40" arrivalSpeed="13.60" duration="123.00" routeLength="894.86" waitingTime="47.00" waitingCount="1" stopTime="0.00" timeLoss="59.03" rerouteNo="0" devices="tripinfo_53" vType="DEFAULT_VEHTYPE" speedFactor="1.02" vaporized=""/>
    <tripinfo id="25" depart="100.00" departLane="top3D3_0" departPos="5.10" departSpeed="0.00" departDelay="0.00" arrival="314.00" arrivalLane="A3left3_0" arrivalPos="286.40" arrivalSpeed="11.51" duration="214.00" routeLength="1479.94" waitingTime="65.00" waitingCount="4" stopTime="0.00" timeLoss="93.33" rerouteNo="0" devices="tripinfo_25" vType="DEFAULT_VEHTYPE" speedFactor="0.89" vaporized=""/>
    <tripinfo id="63" depart="238.00" departLane="top1B3_0" departPos="5.10" departSpeed="0.00" departDelay="0.00" arrival="322.00" arrivalLane="A3top0_0" arrivalPos="286.40" arrivalSpeed="12.64" duration="84.00" routeLength="858.56" waitingTime="2.00" waitingCount="2" stopTime="0.00" timeLoss="17.59" rerouteNo="0" devices="tripinfo_63" vType="DEFAULT_VEHTYPE" speedFactor="0.96" vaporized=""/>
    <tripinfo id="33" depart="133.00" departLane="right3D3_0" departPos="5.10" departSpeed="0.00" departDelay="0.00" arrival="333.00" arrivalLane="A3top0_0" arrivalPos="286.40" arrivalSpeed="15.47" duration="200.00" routeLength="1477.24" waitingTime="79.00" waitingCount="3" stopTime="0.00" timeLoss="105.30" rerouteNo="0" devices="tripinfo_33" vType="DEFAULT_VEHTYPE" speedFactor="1.13" vaporized=""/>
    <tripinfo id="34" depart="134.00" departLane="top2C3_0" departPos="5.10" departSpeed="0.00" departDelay="0.00" arrival="336.00" arrivalLane="D0right0_0" arrivalPos="286.40" arrivalSpeed="15.27" duration="202.00" routeLength="1795.52" waitingTime="57.00" waitingCount="4" stopTime="0.00" timeLoss="91.93" rerouteNo="0" devices="tripinfo_34" vType="DEFAULT_VEHTYPE" speedFactor="1.19" vaporized=""/>
    <tripinfo id="19" depart="51.00" departLane="top2C3_0" departPos="5.10" departSpeed="0.00" departDelay="0.00" arrival="344.00" arrivalLane="A1left1_0" arrivalPos="286.40" arrivalSpeed="11.71" duration="293.00" routeLength="1780.11" waitingTime="111.00" waitingCount="3" stopTime="0.00" timeLoss="140.22" rerouteNo="0" devices="tripinfo_19" vType="DEFAULT_VEHTYPE" speedFactor="0.85" vaporized=""/>
    <tripinfo id="45" depart="165.00" departLane="right0D0_0" departPos="5.10" departSpeed="0.00" departDelay="0.00" arrival="350.00" arrivalLane="D3right3_0" arrivalPos="286.40" arrivalSpeed="16.39" duration="185.00" routeLength="1461.60" waitingTime="66.00" waitingCount="4" stopTime="0.00" timeLoss="96.01" rerouteNo="0" devices="tripinfo_45" vType="DEFAULT_VEHTYPE" speedFactor="1.20" vaporized=""/>
    <tripinfo id="49" depart="182.00" departLane="right0D0_0" departPos="5.10" departSpeed="0.00" departDelay="0.00" arrival="357.00" arrivalLane="D3right3_0" arrivalPos="286.40" arrivalSpeed="14.77" duration="175.00" routeLength="1461.60" waitingTime="52.00" waitingCount="3" stopTime="0.00" timeLoss="80.02" rerouteNo="0" devices="tripinfo_49" vType="DEFAULT_VEHTYPE" speedFactor="1.13" vaporized=""/>
    <tripinfo id="11" depart="40.00" departLane="top1B3_0" departPos="5.10" departSpeed="0.00" departDelay="0.00" arrival="359.00" arrivalLane="D1right1_0" arrivalPos="286.40" arrivalSpeed="13.25" duration="319.00" routeLength="1795.52" waitingTime="152.00" waitingCount="5" stopTime="0.00" timeLoss="191.31" rerouteNo="0" devices="tripinfo_11" vType="DEFAULT_VEHTYPE" speedFactor="1.02" vaporized=""/>
    <tripinfo id="21" depart="67.00" departLane="top1B3_0" departPos="5.10" departSpeed="0.00" departDelay="0.00" arrival="361.00" arrivalLane="D1right1_0" arrivalPos="286.40" arrivalSpeed="12.71" duration="294.00" routeLength="1795.52" waitingTime="138.00" waitingCount="3" stopTime="0.00" timeLoss="164.45" rerouteNo="0" devices="tripinfo_21" vType="DEFAULT_VEHTYPE" speedFactor="1.00" vaporized=""/>
    <tripinfo id="32" depart="133.00" departLane="bottom0A0_0" departPos="5.10" departSpeed="0.00" departDelay="0.00" arrival="366.00" arrivalLane="A0bottom0_0" arrivalPos="286.40" arrivalSpeed="15.69" duration="233.00" routeLength="1748.75" waitingTime="88.00" waitingCount="4" stopTime="0.00" timeLoss="122.78" rerouteNo="0" devices="tripinfo_32" vType="DEFAULT_VEHTYPE" speedFactor="1.16" vaporized=""/>
    <tripinfo id="39" depart="145.00" departLane="left3A3_0" departPos="5.10" departSpeed="0.00" departDelay="0.00" arrival="366.00" arrivalLane="B0bottom1_0" arrivalPos="286.40" arrivalSpeed="16.29" duration="221.00" routeLength="1780.11" waitingTime="83.00" waitingCount="3" stopTime="0.00" timeLoss="112.02" rerouteNo="0" devices="tripinfo_39" vType="DEFAULT_VEHTYPE" speedFactor="1.19" vaporized=""/>
    <tripinfo id="55" depart="189.00" departLane="right0D0_0" departPos="5.10" departSpeed="0.00" departDelay="0.00" arrival="373.00" arrivalLane="A0bottom0_0" arrivalPos="286.40" arrivalSpeed="12.25" duration="184.00" routeLength="1498.06" waitingTime="36.00" waitingCount="3" stopTime="0.00" timeLoss="68.95" rerouteNo="0" devices="tripinfo_55" vType="DEFAULT_VEHTYPE" speedFactor="0.95" vaporized=""/>
    <tripinfo id="1" depart="12.00" departLane="right3D3_0" departPos="5.10" departSpeed="0.00" departDelay="0.00" arrival="378.00" arrivalLane="A0left0_0" arrivalPos="286.40" arrivalSpeed="13.87" duration="366.00" routeLength="2380.22" waitingTime="157.00" waitingCount="5" stopTime="0.00" timeLoss="201.69" rerouteNo="0" devices="tripinfo_1" vType="DEFAULT_VEHTYPE" speedFactor="1.05" vaporized=""/>
    <tripinfo id="38" depart="142.00" departLane="top3D3_0" departPos="5.10" departSpeed="0.00" departDelay="0.00" arrival="380.00" arrivalLane="C0bottom2_0" arrivalPos="286.40" arrivalSpeed="13.28" duration="238.00" routeLength="1782.72" waitingTime="81.00" waitingCount="3" stopTime="0.00" timeLoss="106.71" rerouteNo="0" devices="tripinfo_38" vType="DEFAULT_VEHTYPE" speedFactor="0.99" vaporized=""/>
    <tripinfo id="4" depart="29.00" departLane="left3A3_0" departPos="5.10" departSpeed="0.00" departDelay="0.00" arrival="381.00" arrivalLane="D1right1_1" arrivalPos="286.40" arrivalSpeed="13.15" duration="352.00" routeLength="2082.76" waitingTime="157.00" waitingCount="6" stopTime="0.00" timeLoss="205.61" rerouteNo="0" devices="tripinfo_4" vType="DEFAULT_VEHTYPE" speedFactor="1.03" vaporized=""/>
    <tripinfo id="36" depart="139.00" departLane="right3D3_0" departPos="5.10" departSpeed="0.00" departDelay="0.00" arrival="384.00" arrivalLane="D1right1_0" arrivalPos="286.40" arrivalSpeed="11.46" duration="245.00" routeLength="1197.66" waitingTime="120.00" waitingCount="2" stopTime="0.00" timeLoss="142.18" rerouteNo="0" devices="tripinfo_36" vType="DEFAULT_VEHTYPE" speedFactor="0.86" vaporized=""/>
    <tripinfo id="68" depart="274.00" departLane="top1B3_0" departPos="5.10" departSpeed="0.00" departDelay="0.00" arrival="390.00" arrivalLane="A3left3_0" arrivalPos="286.40" arrivalSpeed="12.92" duration="116.00" routeLength="879.60" waitingTime="34.00" waitingCount="1" stopTime="0.00" timeLoss="47.48" rerouteNo="0" devices="tripinfo_68" vType="DEFAULT_VEHTYPE" speedFactor="0.94" vaporized=""/>
    <tripinfo id="47" depart="171.00" departLane="right2D2_0" departPos="5.10" departSpeed="0.00" departDelay="0.00" arrival="391.00" arrivalLane="A2left2_0" arrivalPos="286.40" arrivalSpeed="13.11" duration="220.00" routeLength="1495.58" waitingTime="88.00" waitingCount="3" stopTime="0.00" timeLoss="114.89" rerouteNo="0" devices="tripinfo_47" vType="DEFAULT_VEHTYPE" speedFactor="1.03" vaporized=""/>
    <tripinfo id="26" depart="103.00" departLane="top1B3_0" departPos="5.10" departSpeed="0.00" departDelay="0.00" arrival="402.00" arrivalLane="C0bottom2_0" arrivalPos="286.40" arrivalSpeed="11.77" duration="299.00" routeLength="1782.59" waitingTime="122.00" waitingCount="3" stopTime="0.00" timeLoss="152.83" rerouteNo="0" devices="tripinfo_26" vType="DEFAULT_VEHTYPE" speedFactor="0.89" vaporized=""/>
    <tripinfo id="70" depart="277.00" departLane="left2A2_0" departPos="5.10" departSpeed="0.00" departDelay="0.00" arrival="405.00" arrivalLane="C3top2_0" arrivalPos="286.40" arrivalSpeed="16.16" duration="128.00" routeLength="1495.35" waitingTime="13.00" waitingCount="2" stopTime="0.00" timeLoss="41.56" rerouteNo="0" devices="tripinfo_70" vType="DEFAULT_VEHTYPE" speedFactor="1.26" vaporized=""/>
    <tripinfo id="20" depart="53.00" departLane="right1D1_0" departPos="5.10" departSpeed="0.00" departDelay="0.00" arrival="410.00" arrivalLane="A0bottom0_0" arrivalPos="286.40" arrivalSpeed="12.59" duration="357.00" routeLength="1795.52" waitingTime="186.00" waitingCount="5" stopTime="0.00" timeLoss="226.01" rerouteNo="0" devices="tripinfo_20" vType="DEFAULT_VEHTYPE" speedFactor="1.00" vaporized=""/>
    <tripinfo id="54" depart="188.00" departLane="top2C3_0" departPos="5.10" departSpeed="0.00" departDelay="0.00" arrival="418.00" arrivalLane="D2right2_0" arrivalPos="286.40" arrivalSpeed="14.52" duration="230.00" routeLength="1195.18" waitingTime="135.00" waitingCount="1" stopTime="0.00" timeLoss="148.92" rerouteNo="0" devices="tripinfo_54" vType="DEFAULT_VEHTYPE" speedFactor="1.07" vaporized=""/>
    <tripinfo id="35" depart="134.00" departLane="top0A3_0" departPos="5.10" departSpeed="0.00" departDelay="0.00" arrival="419.00" arrivalLane="D3top3_0" arrivalPos="286.40" arrivalSpeed="13.48" duration="285.00" routeLength="1497.83" waitingTime="146.00" waitingCount="4" stopTime="0.00" timeLoss="180.35" rerouteNo="0" devices="tripinfo_35" vType="DEFAULT_VEHTYPE" speedFactor="1.04" vaporized=""/>
    <tripinfo id="67" depart="272.00" departLane="bottom1B0_0" departPos="5.10" departSpeed="0.00" departDelay="0.00" arrival="421.00" arrivalLane="B0bottom1_0" arrivalPos="286.40" arrivalSpeed="14.97" duration="149.00" routeLength="1748.75" waitingTime="7.00" waitingCount="3" stopTime="0.00" timeLoss="35.13" rerouteNo="0" devices="tripinfo_67" vType="DEFAULT_VEHTYPE" speedFactor="1.13" vaporized=""/>
    <tripinfo id="91" depart="381.00" departLane="left3A3_0" departPos="5.10" departSpeed="0.00" departDelay="0.00" arrival="435.00" arrivalLane="A3top0_0" arrivalPos="286.40" arrivalSpeed="12.18" duration="54.00" routeLength="597.55" waitingTime="0.00" waitingCount="0" stopTime="0.00" timeLoss="5.28" rerouteNo="0" devices="tripinfo_91" vType="DEFAULT_VEHTYPE" speedFactor="0.91" vaporized=""/>
    <tripinfo id="80" depart="339.00" departLane="top1B3_0" departPos="5.10" departSpeed="0.00" departDelay="0.00" arrival="439.00" arrivalLane="A3left3_0" arrivalPos="286.40" arrivalSpeed="13.42" duration="100.00" routeLength="879.60" waitingTime="18.00" waitingCount="2" stopTime="0.00" timeLoss="36.04" rerouteNo="0" devices="tripinfo_80" vType="DEFAULT_VEHTYPE" speedFactor="1.00" vaporized=""/>
    <tripinfo id="50" depart="184.00" departLane="left1A1_0" departPos="5.10" departSpeed="0.00" departDelay="0.00" arrival="447.00" arrivalLane="D0bottom3_0" arrivalPos="286.40" arrivalSpeed="14.25" duration="263.00" routeLength="1780.11" waitingTime="108.00" waitingCount="4" stopTime="0.00" timeLoss="142.28" rerouteNo="0" devices="tripinfo_50" vType="DEFAULT_VEHTYPE" speedFactor="1.07" vaporized=""/>
    <tripinfo id="78" depart="324.00" departLane="bottom2C0_0" departPos="5.10" departSpeed="0.00" departDelay="0.00" arrival="461.00" arrivalLane="D0right0_0" arrivalPos="286.40" arrivalSpeed="11.73" duration="137.00" routeLength="879.60" waitingTime="50.00" waitingCount="1" stopTime="0.00" timeLoss="65.41" rerouteNo="0" devices="tripinfo_78" vType="DEFAULT_VEHTYPE" speedFactor="0.89" vaporized=""/>
    <tripinfo id="57" depart="213.00" departLane="left1A1_0" departPos="5.10" departSpeed="0.00" departDelay="0.00" arrival="470.00" arrivalLane="D3right3_1" arrivalPos="286.40" arrivalSpeed="14.50" duration="257.00" routeLength="2080.05" waitingTime="58.00" waitingCount="3" stopTime="0.00" timeLoss="113.04" rerouteNo="0" devices="tripinfo_57" vType="DEFAULT_VEHTYPE" speedFactor="1.05" vaporized=""/>
    <tripinfo id="71" depart="292.00" departLane="top0A3_0" departPos="5.10" departSpeed="0.00" departDelay="0.00" arrival="471.00" arrivalLane="D2right2_0" arrivalPos="286.40" arrivalSpeed="13.62" duration="179.00" routeLength="1795.52" waitingTime="27.00" waitingCount="3" stopTime="0.00" timeLoss="55.82" rerouteNo="0" devices="tripinfo_71" vType="DEFAULT_VEHTYPE" speedFactor="1.06" vaporized=""/>
    <tripinfo id="40" depart="148.00" departLane="left1A1_0" departPos="5.10" departSpeed="0.00" departDelay="0.00" arrival="472.00" arrivalLane="D3right3_0" arrivalPos="286.40" arrivalSpeed="11.59" duration="324.00" routeLength="2080.05" waitingTime="115.00" waitingCount="4" stopTime="0.00" timeLoss="153.82" rerouteNo="0" devices="tripinfo_40" vType="DEFAULT_VEHTYPE" speedFactor="0.89" vaporized=""/>
    <tripinfo id="73" depart="305.00" departLane="right3D3_0" departPos="5.10" departSpeed="0.00" departDelay="0.00" arrival="473.00" arrivalLane="D3right3_1" arrivalPos="286.40" arrivalSpeed="12.36" duration="168.00" routeLength="1745.91" waitingTime="5.00" waitingCount="3" stopTime="0.00" timeLoss="37.13" rerouteNo="0" devices="tripinfo_73" vType="DEFAULT_VEHTYPE" speedFactor="0.98" vaporized=""/>
    <tripinfo id="58" depart="213.00" departLane="left2A2_0" departPos="5.10" departSpeed="0.00" departDelay="0.00" arrival="475.00" arrivalLane="D0bottom3_0" arrivalPos="286.40" arrivalSpeed="16.16" duration="262.00" routeLength="2080.28" waitingTime="94.00" waitingCount="5" stopTime="0.00" timeLoss="140.10" rerouteNo="0" devices="tripinfo_58" vType="DEFAULT_VEHTYPE" speedFactor="1.24" vaporized=""/>
    <tripinfo id="75" depart="315.00" departLane="right2D2_0" departPos="5.10" departSpeed="0.00" departDelay="0.00" arrival="475.00" arrivalLane="D1right1_0" arrivalPos="286.40" arrivalSpeed="13.14" duration="160.00" routeLength="894.86" waitingTime="80.00" waitingCount="1" stopTime="0.00" timeLoss="91.50" rerouteNo="0" devices="tripinfo_75" vType="DEFAULT_VEHTYPE" speedFactor="0.95" vaporized=""/>
    <tripinfo id="82" depart="350.00" departLane="bottom1B0_0" departPos="5.10" departSpeed="0.00" departDelay="0.00" arrival="493.00" arrivalLane="A1left1_0" arrivalPos="286.40" arrivalSpeed="12.52" duration="143.00" routeLength="1195.18" waitingTime="36.00" waitingCount="2" stopTime="0.00" timeLoss="53.44" rerouteNo="0" devices="tripinfo_82" vType="DEFAULT_VEHTYPE" speedFactor="0.97" vaporized=""/>
    <tripinfo id="81" depart="339.00" departLane="top2C3_0" departPos="5.10" departSpeed="0.00" departDelay="0.00" arrival="497.00" arrivalLane="A3top0_0" arrivalPos="286.40" arrivalSpeed="13.23" duration="158.00" routeLength="1161.43" waitingTime="54.00" waitingCount="2" stopTime="0.00" timeLoss="72.76" rerouteNo="0" devices="tripinfo_81" vType="DEFAULT_VEHTYPE" speedFactor="0.99" vaporized=""/>
    <tripinfo id="41" depart="153.00" departLane="right1D1_0" departPos="5.10" departSpeed="0.00" departDelay="0.00" arrival="507.00" arrivalLane="A3top0_0" arrivalPos="286.40" arrivalSpeed="12.53" duration="354.00" routeLength="2080.28" waitingTime="157.00" waitingCount="4" stopTime="0.00" timeLoss="188.03" rerouteNo="0" devices="tripinfo_41" vType="DEFAULT_VEHTYPE" speedFactor="0.91" vaporized=""/>
    <tripinfo id="64" depart="255.00" departLane="right2D2_0" departPos="5.10" departSpeed="0.00" departDelay="0.00" arrival="512.00" arrivalLane="A3top0_0" arrivalPos="286.40" arrivalSpeed="11.86" duration="257.00" routeLength="1780.11" waitingTime="81.00" waitingCount="3" stopTime="0.00" timeLoss="111.22" rerouteNo="0" devices="tripinfo_64" vType="DEFAULT_VEHTYPE" speedFactor="0.88" vaporized=""/>
    <tripinfo id="86" depart="364.00" departLane="top2C3_0" departPos="5.10" departSpeed="0.00" departDelay="0.00" arrival="512.00" arrivalLane="A3top0_1" arrivalPos="286.40" arrivalSpeed="13.96" duration="148.00" routeLength="1161.43" waitingTime="37.00" waitingCount="3" stopTime="0.00" timeLoss="64.31" rerouteNo="0" devices="tripinfo_86" vType="DEFAULT_VEHTYPE" speedFactor="1.02" vaporized=""/>
    <tripinfo id="61" depart="217.00" departLane="right0D0_0" departPos="5.10" departSpeed="0.00" departDelay="0.00" arrival="519.00" arrivalLane="A0bottom0_0" arrivalPos="286.40" arrivalSpeed="12.67" duration="302.00" routeLength="1498.06" waitingTime="162.00" waitingCount="4" stopTime="0.00" timeLoss="192.42" rerouteNo="0" devices="tripinfo_61" vType="DEFAULT_VEHTYPE" speedFactor="0.99" vaporized=""/>
    <tripinfo id="100" depart="429.00" departLane="bottom1B0_0" departPos="5.10" departSpeed="0.00" departDelay="0.00" arrival="519.00" arrivalLane="A0left0_0" arrivalPos="286.40" arrivalSpeed="13.10" duration="90.00" routeLength="895.01" waitingTime="12.00" waitingCount="1" stopTime="0.00" timeLoss="25.51" rerouteNo="0" devices="tripinfo_100" vType="DEFAULT_VEHTYPE" speedFactor="1.02" vaporized=""/>