<?xml version="1.0" encoding="UTF-8"?>

<!-- generated on 12/10/21 14:10:40 by Eclipse SUMO sumo Version 1.7.0
<configuration xmlns:xsi="http://www.w3.org/2001/XMLSchema-instance" xsi:noNamespaceSchemaLocation="http://sumo.dlr.de/xsd/sumoConfiguration.xsd">

    <input>
        <net-file value="C:\Users\longs\Desktop\RESCO-main\environments\grid4x4\grid4x4.net.xml"/>
        <route-files value="C:\Users\longs\Desktop\RESCO-main\environments\grid4x4\grid4x4_69.rou.xml"/>
    </input>

    <output>
        <tripinfo-output value="C:\Users\longs\Desktop\RESCO-main\logs\STOCHASTIC-tr1-grid4x4-0-mplight-wait\tripinfo_69.xml"/>
        <tripinfo-output.write-unfinished value="true"/>
    </output>

    <processing>
        <time-to-teleport value="-1"/>
    </processing>

    <report>
        <no-warnings value="true"/>
        <no-step-log value="true"/>
    </report>

    <traci_server>
        <remote-port value="59776"/>
    </traci_server>

    <random_number>
        <random value="true"/>
    </random_number>

</configuration>
-->

<tripinfos xmlns:xsi="http://www.w3.org/2001/XMLSchema-instance" xsi:noNamespaceSchemaLocation="http://sumo.dlr.de/xsd/tripinfo_file.xsd">
    <tripinfo id="2" depart="13.00" departLane="top1B3_0" departPos="5.10" departSpeed="0.00" departDelay="0.00" arrival="120.00" arrivalLane="C3top2_0" arrivalPos="286.40" arrivalSpeed="12.46" duration="107.00" routeLength="894.86" waitingTime="26.00" waitingCount="1" stopTime="0.00" timeLoss="37.52" rerouteNo="0" devices="tripinfo_2" vType="DEFAULT_VEHTYPE" speedFactor="0.94" vaporized=""/>
    <tripinfo id="5" depart="18.00" departLane="top1B3_0" departPos="5.10" departSpeed="0.00" departDelay="0.00" arrival="168.00" arrivalLane="A2left2_0" arrivalPos="286.40" arrivalSpeed="15.98" duration="150.00" routeLength="1179.77" waitingTime="61.00" waitingCount="2" stopTime="0.00" timeLoss="78.54" rerouteNo="0" devices="tripinfo_5" vType="DEFAULT_VEHTYPE" speedFactor="1.21" vaporized=""/>
    <tripinfo id="4" depart="15.00" departLane="left2A2_0" departPos="5.10" departSpeed="0.00" departDelay="0.00" arrival="178.00" arrivalLane="D1right1_0" arrivalPos="286.40" arrivalSpeed="14.61" duration="163.00" routeLength="1782.72" waitingTime="14.00" waitingCount="2" stopTime="0.00" timeLoss="40.21" rerouteNo="0" devices="tripinfo_4" vType="DEFAULT_VEHTYPE" speedFactor="1.06" vaporized=""/>
    <tripinfo id="1" depart="8.00" departLane="bottom0A0_0" departPos="5.10" departSpeed="0.00" departDelay="0.00" arrival="190.00" arrivalLane="A2left2_0" arrivalPos="286.40" arrivalSpeed="12.67" duration="182.00" routeLength="1197.89" waitingTime="68.00" waitingCount="3" stopTime="0.00" timeLoss="92.58" rerouteNo="0" devices="tripinfo_1" vType="DEFAULT_VEHTYPE" speedFactor="0.97" vaporized=""/>
    <tripinfo id="0" depart="3.00" departLane="bottom1B0_0" departPos="5.10" departSpeed="0.00" departDelay="0.00" arrival="199.00" arrivalLane="C3top2_0" arrivalPos="286.40" arrivalSpeed="13.62" duration="196.00" routeLength="1782.72" waitingTime="36.00" waitingCount="4" stopTime="0.00" timeLoss="67.47" rerouteNo="0" devices="tripinfo_0" vType="DEFAULT_VEHTYPE" speedFactor="1.01" vaporized=""/>
    <tripinfo id="8" depart="35.00" departLane="top2C3_0" departPos="5.10" departSpeed="0.00" departDelay="0.00" arrival="200.00" arrivalLane="A3left3_0" arrivalPos="286.40" arrivalSpeed="12.46" duration="165.00" routeLength="1179.77" waitingTime="51.00" waitingCount="3" stopTime="0.00" timeLoss="73.77" rerouteNo="0" devices="tripinfo_8" vType="DEFAULT_VEHTYPE" speedFactor="0.94" vaporized=""/>
    <tripinfo id="19" depart="81.00" departLane="top2C3_0" departPos="5.10" departSpeed="0.00" departDelay="0.00" arrival="203.00" arrivalLane="A3top0_0" arrivalPos="286.40" arrivalSpeed="13.45" duration="122.00" routeLength="1161.43" waitingTime="17.00" waitingCount="2" stopTime="0.00" timeLoss="36.43" rerouteNo="0" devices="tripinfo_19" vType="DEFAULT_VEHTYPE" speedFactor="0.99" vaporized=""/>
    <tripinfo id="20" depart="101.00" departLane="top2C3_0" departPos="5.10" departSpeed="0.00" departDelay="0.00" arrival="210.00" arrivalLane="D3top3_0" arrivalPos="286.40" arrivalSpeed="13.33" duration="109.00" routeLength="894.86" waitingTime="26.00" waitingCount="2" stopTime="0.00" timeLoss="41.13" rerouteNo="0" devices="tripinfo_20" vType="DEFAULT_VEHTYPE" speedFactor="0.97" vaporized=""/>
    <tripinfo id="24" depart="129.00" departLane="right2D2_0" departPos="5.10" departSpeed="0.00" departDelay="0.00" arrival="228.00" arrivalLane="D1right1_0" arrivalPos="286.40" arrivalSpeed="13.97" duration="99.00" routeLength="894.86" waitingTime="27.00" waitingCount="1" stopTime="0.00" timeLoss="38.95" rerouteNo="0" devices="tripinfo_24" vType="DEFAULT_VEHTYPE" speedFactor="1.10" vaporized=""/>
    <tripinfo id="3" depart="14.00" departLane="left1A1_0" departPos="5.10" departSpeed="0.00" departDelay="0.00" arrival="229.00" arrivalLane="D3top3_0" arrivalPos="286.40" arrivalSpeed="13.55" duration="215.00" routeLength="2095.69" waitingTime="34.00" waitingCount="2" stopTime="0.00" timeLoss="64.58" rerouteNo="0" devices="tripinfo_3" vType="DEFAULT_VEHTYPE" speedFactor="1.01" vaporized=""/>
    <tripinfo id="15" depart="66.00" departLane="bottom1B0_0" departPos="5.10" departSpeed="0.00" departDelay="0.00" arrival="233.00" arrivalLane="D0bottom3_0" arrivalPos="286.40" arrivalSpeed="15.20" duration="167.00" routeLength="1161.43" waitingTime="67.00" waitingCount="3" stopTime="0.00" timeLoss="92.94" rerouteNo="0" devices="tripinfo_15" vType="DEFAULT_VEHTYPE" speedFactor="1.15" vaporized=""/>
    <tripinfo id="9" depart="37.00" departLane="bottom0A0_0" departPos="5.10" departSpeed="0.00" departDelay="0.00" arrival="239.00" arrivalLane="D0right0_0" arrivalPos="286.40" arrivalSpeed="13.45" duration="202.00" routeLength="1479.94" waitingTime="64.00" waitingCount="4" stopTime="0.00" timeLoss="94.22" rerouteNo="0" devices="tripinfo_9" vType="DEFAULT_VEHTYPE" speedFactor="0.99" vaporized=""/>
    <tripinfo id="14" depart="59.00" departLane="bottom1B0_0" departPos="5.10" departSpeed="0.00" departDelay="0.00" arrival="242.00" arrivalLane="D1right1_0" arrivalPos="286.40" arrivalSpeed="12.20" duration="183.00" routeLength="1479.94" waitingTime="33.00" waitingCount="3" stopTime="0.00" timeLoss="62.50" rerouteNo="0" devices="tripinfo_14" vType="DEFAULT_VEHTYPE" speedFactor="0.89" vaporized=""/>
    <tripinfo id="7" depart="33.00" departLane="right0D0_0" departPos="5.10" departSpeed="0.00" departDelay="0.00" arrival="251.00" arrivalLane="B0bottom1_0" arrivalPos="286.40" arrivalSpeed="12.64" duration="218.00" routeLength="1197.89" waitingTime="103.00" waitingCount="3" stopTime="0.00" timeLoss="126.77" rerouteNo="0" devices="tripinfo_7" vType="DEFAULT_VEHTYPE" speedFactor="0.96" vaporized=""/>
    <tripinfo id="13" depart="56.00" departLane="bottom2C0_0" departPos="5.10" departSpeed="0.00" departDelay="0.00" arrival="273.00" arrivalLane="A2left2_0" arrivalPos="286.40" arrivalSpeed="10.76" duration="217.00" routeLength="1795.52" waitingTime="40.00" waitingCount="2" stopTime="0.00" timeLoss="66.50" rerouteNo="0" devices="tripinfo_13" vType="DEFAULT_VEHTYPE" speedFactor="0.87" vaporized=""/>
    <tripinfo id="28" depart="141.00" departLane="left3A3_0" departPos="5.10" departSpeed="0.00" departDelay="0.00" arrival="276.00" arrivalLane="B3top1_0" arrivalPos="286.40" arrivalSpeed="10.44" duration="135.00" routeLength="897.72" waitingTime="39.00" waitingCount="1" stopTime="0.00" timeLoss="51.02" rerouteNo="0" devices="tripinfo_28" vType="DEFAULT_VEHTYPE" speedFactor="0.78" vaporized=""/>
    <tripinfo id="41" depart="199.00" departLane="left3A3_0" departPos="5.10" departSpeed="0.00" departDelay="0.00" arrival="276.00" arrivalLane="A2left2_0" arrivalPos="286.40" arrivalSpeed="13.38" duration="77.00" routeLength="858.56" waitingTime="1.00" waitingCount="1" stopTime="0.00" timeLoss="16.62" rerouteNo="0" devices="tripinfo_41" vType="DEFAULT_VEHTYPE" speedFactor="1.04" vaporized=""/>
    <tripinfo id="45" depart="206.00" departLane="bottom1B0_0" departPos="5.10" departSpeed="0.00" departDelay="0.00" arrival="284.00" arrivalLane="C0bottom2_0" arrivalPos="286.40" arrivalSpeed="14.81" duration="78.00" routeLength="858.56" waitingTime="2.00" waitingCount="2" stopTime="0.00" timeLoss="19.56" rerouteNo="0" devices="tripinfo_45" vType="DEFAULT_VEHTYPE" speedFactor="1.08" vaporized=""/>
    <tripinfo id="12" depart="50.00" departLane="left3A3_0" departPos="5.10" departSpeed="0.00" departDelay="0.00" arrival="298.00" arrivalLane="C0bottom2_0" arrivalPos="286.40" arrivalSpeed="13.94" duration="248.00" routeLength="2080.28" waitingTime="72.00" waitingCount="4" stopTime="0.00" timeLoss="106.08" rerouteNo="0" devices="tripinfo_12" vType="DEFAULT_VEHTYPE" speedFactor="1.07" vaporized=""/>
    <tripinfo id="48" depart="219.00" departLane="right0D0_0" departPos="5.10" departSpeed="0.00" departDelay="0.00" arrival="305.00" arrivalLane="D1right1_0" arrivalPos="286.40" arrivalSpeed="11.87" duration="86.00" routeLength="858.56" waitingTime="2.00" waitingCount="2" stopTime="0.00" timeLoss="18.57" rerouteNo="0" devices="tripinfo_48" vType="DEFAULT_VEHTYPE" speedFactor="0.94" vaporized=""/>
    <tripinfo id="22" depart="105.00" departLane="bottom1B0_0" departPos="5.10" departSpeed="0.00" departDelay="0.00" arrival="326.00" arrivalLane="A2left2_0" arrivalPos="286.40" arrivalSpeed="15.97" duration="221.00" routeLength="1495.35" waitingTime="100.00" waitingCount="3" stopTime="0.00" timeLoss="128.18" rerouteNo="0" devices="tripinfo_22" vType="DEFAULT_VEHTYPE" speedFactor="1.18" vaporized=""/>
    <tripinfo id="36" depart="174.00" departLane="bottom3D0_0" departPos="5.10" departSpeed="0.00" departDelay="0.00" arrival="335.00" arrivalLane="D3right3_0" arrivalPos="286.40" arrivalSpeed="14.73" duration="161.00" routeLength="1477.24" waitingTime="36.00" waitingCount="3" stopTime="0.00" timeLoss="62.42" rerouteNo="0" devices="tripinfo_36" vType="DEFAULT_VEHTYPE" speedFactor="1.08" vaporized=""/>
    <tripinfo id="31" depart="152.00" departLane="bottom2C0_0" departPos="5.10" departSpeed="0.00" departDelay="0.00" arrival="338.00" arrivalLane="D3top3_0" arrivalPos="286.40" arrivalSpeed="14.66" duration="186.00" routeLength="1782.72" waitingTime="32.00" waitingCount="3" stopTime="0.00" timeLoss="65.22" rerouteNo="0" devices="tripinfo_31" vType="DEFAULT_VEHTYPE" speedFactor="1.08" vaporized=""/>
    <tripinfo id="18" depart="77.00" departLane="right0D0_0" departPos="5.10" departSpeed="0.00" departDelay="0.00" arrival="341.00" arrivalLane="A3top0_0" arrivalPos="286.40" arrivalSpeed="11.76" duration="264.00" routeLength="2380.45" waitingTime="49.00" waitingCount="3" stopTime="0.00" timeLoss="76.54" rerouteNo="0" devices="tripinfo_18" vType="DEFAULT_VEHTYPE" speedFactor="0.92" vaporized=""/>
    <tripinfo id="17" depart="76.00" departLane="bottom1B0_0" departPos="5.10" departSpeed="0.00" departDelay="0.00" arrival="348.00" arrivalLane="B3top1_0" arrivalPos="286.40" arrivalSpeed="13.36" duration="272.00" routeLength="1495.58" waitingTime="137.00" waitingCount="4" stopTime="0.00" timeLoss="168.29" rerouteNo="0" devices="tripinfo_17" vType="DEFAULT_VEHTYPE" speedFactor="1.04" vaporized=""/>
    <tripinfo id="60" depart="276.00" departLane="left1A1_0" departPos="5.10" departSpeed="0.00" departDelay="0.00" arrival="353.00" arrivalLane="A0left0_0" arrivalPos="286.40" arrivalSpeed="13.99" duration="77.00" routeLength="858.56" waitingTime="2.00" waitingCount="2" stopTime="0.00" timeLoss="18.41" rerouteNo="0" devices="tripinfo_60" vType="DEFAULT_VEHTYPE" speedFactor="1.08" vaporized=""/>
    <tripinfo id="61" depart="281.00" departLane="right1D1_0" departPos="5.10" departSpeed="0.00" departDelay="0.00" arrival="370.00" arrivalLane="D0right0_0" arrivalPos="286.40" arrivalSpeed="12.90" duration="89.00" routeLength="894.86" waitingTime="4.00" waitingCount="1" stopTime="0.00" timeLoss="20.98" rerouteNo="0" devices="tripinfo_61" vType="DEFAULT_VEHTYPE" speedFactor="0.97" vaporized=""/>
    <tripinfo id="64" depart="288.00" departLane="left1A1_0" departPos="5.10" departSpeed="0.00" departDelay="0.00" arrival="376.00" arrivalLane="A2left2_0" arrivalPos="286.40" arrivalSpeed="11.83" duration="88.00" routeLength="894.86" waitingTime="7.00" waitingCount="1" stopTime="0.00" timeLoss="17.83" rerouteNo="0" devices="tripinfo_64" vType="DEFAULT_VEHTYPE" speedFactor="0.94" vaporized=""/>
    <tripinfo id="32" depart="156.00" departLane="top1B3_0" departPos="5.10" departSpeed="0.00" departDelay="0.00" arrival="379.00" arrivalLane="B3top1_0" arrivalPos="286.40" arrivalSpeed="13.64" duration="223.00" routeLength="1748.75" waitingTime="69.00" waitingCount="4" stopTime="0.00" timeLoss="101.99" rerouteNo="0" devices="tripinfo_32" vType="DEFAULT_VEHTYPE" speedFactor="1.06" vaporized=""/>
    <tripinfo id="51" depart="243.00" departLane="bottom3D0_0" departPos="5.10" departSpeed="0.00" departDelay="0.00" arrival="381.00" arrivalLane="B0bottom1_0" arrivalPos="286.40" arrivalSpeed="12.37" duration="138.00" routeLength="1197.66" waitingTime="31.00" waitingCount="1" stopTime="0.00" timeLoss="43.62" rerouteNo="0" devices="tripinfo_51" vType="DEFAULT_VEHTYPE" speedFactor="0.93" vaporized=""/>
    <tripinfo id="23" depart="113.00" departLane="right3D3_0" departPos="5.10" departSpeed="0.00" departDelay="0.00" arrival="387.00" arrivalLane="A0bottom0_0" arrivalPos="286.40" arrivalSpeed="15.62" duration="274.00" routeLength="2395.86" waitingTime="81.00" waitingCount="5" stopTime="0.00" timeLoss="120.39" rerouteNo="0" devices="tripinfo_23" vType="DEFAULT_VEHTYPE" speedFactor="1.13" vaporized=""/>
    <tripinfo id="52" depart="244.00" departLane="right3D3_0" departPos="5.10" departSpeed="0.00" departDelay="0.00" arrival="388.00" arrivalLane="D2right2_0" arrivalPos="286.40" arrivalSpeed="14.21" duration="144.00" routeLength="894.86" waitingTime="66.00" waitingCount="2" stopTime="0.00" timeLoss="81.72" rerouteNo="0" devices="tripinfo_52" vType="DEFAULT_VEHTYPE" speedFactor="1.06" vaporized=""/>
    <tripinfo id="67" depart="306.00" departLane="top1B3_0" departPos="5.10" departSpeed="0.00" departDelay="0.00" arrival="397.00" arrivalLane="A3top0_0" arrivalPos="286.40" arrivalSpeed="10.34" duration="91.00" routeLength="858.56" waitingTime="1.00" waitingCount="1" stopTime="0.00" timeLoss="14.62" rerouteNo="0" devices="tripinfo_67" vType="DEFAULT_VEHTYPE" speedFactor="0.83" vaporized=""/>
    <tripinfo id="37" depart="186.00" departLane="bottom3D0_0" departPos="5.10" departSpeed="0.00" departDelay="0.00" arrival="399.00" arrivalLane="A0left0_0" arrivalPos="286.40" arrivalSpeed="13.08" duration="213.00" routeLength="1495.35" waitingTime="74.00" waitingCount="4" stopTime="0.00" timeLoss="102.07" rerouteNo="0" devices="tripinfo_37" vType="DEFAULT_VEHTYPE" speedFactor="0.97" vaporized=""/>
    <tripinfo id="30" depart="152.00" departLane="left2A2_0" departPos="5.10" departSpeed="0.00" departDelay="0.00" arrival="404.00" arrivalLane="D2right2_0" arrivalPos="286.40" arrivalSpeed="13.66" duration="252.00" routeLength="1495.58" waitingTime="113.00" waitingCount="3" stopTime="0.00" timeLoss="142.80" rerouteNo="0" devices="tripinfo_30" vType="DEFAULT_VEHTYPE" speedFactor="0.99" vaporized=""/>
    <tripinfo id="56" depart="263.00" departLane="right3D3_0" departPos="5.10" departSpeed="0.00" departDelay="0.00" arrival="408.00" arrivalLane="D2right2_0" arrivalPos="286.40" arrivalSpeed="14.67" duration="145.00" routeLength="894.86" waitingTime="68.00" waitingCount="2" stopTime="0.00" timeLoss="85.45" rerouteNo="0" devices="tripinfo_56" vType="DEFAULT_VEHTYPE" speedFactor="1.11" vaporized=""/>
    <tripinfo id="58" depart="272.00" departLane="right1D1_0" departPos="5.10" departSpeed="0.00" departDelay="0.00" arrival="411.00" arrivalLane="D3top3_0" arrivalPos="286.40" arrivalSpeed="11.29" duration="139.00" routeLength="1179.77" waitingTime="23.00" waitingCount="1" stopTime="0.00" timeLoss="40.61" rerouteNo="0" devices="tripinfo_58" vType="DEFAULT_VEHTYPE" speedFactor="0.87" vaporized=""/>
    <tripinfo id="73" depart="332.00" departLane="bottom3D0_0" departPos="5.10" departSpeed="0.00" departDelay="0.00" arrival="416.00" arrivalLane="C0bottom2_0" arrivalPos="286.40" arrivalSpeed="15.51" duration="84.00" routeLength="894.86" waitingTime="10.00" waitingCount="2" stopTime="0.00" timeLoss="27.15" rerouteNo="0" devices="tripinfo_73" vType="DEFAULT_VEHTYPE" speedFactor="1.15" vaporized=""/>
    <tripinfo id="34" depart="161.00" departLane="bottom0A0_0" departPos="5.10" departSpeed="0.00" departDelay="0.00" arrival="418.00" arrivalLane="D1right1_1" arrivalPos="286.40" arrivalSpeed="15.95" duration="257.00" routeLength="1780.11" waitingTime="110.00" waitingCount="4" stopTime="0.00" timeLoss="145.55" rerouteNo="0" devices="tripinfo_34" vType="DEFAULT_VEHTYPE" speedFactor="1.16" vaporized=""/>
    <tripinfo id="25" depart="130.00" departLane="top1B3_0" departPos="5.10" departSpeed="0.00" departDelay="0.00" arrival="421.00" arrivalLane="D1right1_1" arrivalPos="286.40" arrivalSpeed="14.86" duration="291.00" routeLength="1795.52" waitingTime="129.00" waitingCount="5" stopTime="0.00" timeLoss="169.74" rerouteNo="0" devices="tripinfo_25" vType="DEFAULT_VEHTYPE" speedFactor="1.07" vaporized=""/>
    <tripinfo id="33" depart="161.00" departLane="bottom2C0_0" departPos="5.10" departSpeed="0.00" departDelay="0.00" arrival="422.00" arrivalLane="D1right1_0" arrivalPos="286.40" arrivalSpeed="11.37" duration="261.00" routeLength="1179.77" waitingTime="138.00" waitingCount="3" stopTime="0.00" timeLoss="162.58" rerouteNo="0" devices="tripinfo_33" vType="DEFAULT_VEHTYPE" speedFactor="0.87" vaporized=""/>
    <tripinfo id="44" depart="205.00" departLane="top3D3_0" departPos="5.10" departSpeed="0.00" departDelay="0.00" arrival="427.00" arrivalLane="C0bottom2_0" arrivalPos="286.40" arrivalSpeed="16.20" duration="222.00" routeLength="1782.72" waitingTime="75.00" waitingCount="4" stopTime="0.00" timeLoss="111.68" rerouteNo="0" devices="tripinfo_44" vType="DEFAULT_VEHTYPE" speedFactor="1.18" vaporized=""/>
    <tripinfo id="27" depart="139.00" departLane="right0D0_0" departPos="5.10" departSpeed="0.00" departDelay="0.00" arrival="435.00" arrivalLane="A2left2_0" arrivalPos="286.40" arrivalSpeed="11.98" duration="296.00" routeLength="2082.76" waitingTime="100.00" waitingCount="4" stopTime="0.00" timeLoss="129.50" rerouteNo="0" devices="tripinfo_27" vType="DEFAULT_VEHTYPE" speedFactor="0.91" vaporized=""/>
    <tripinfo id="68" depart="309.00" departLane="bottom0A0_0" departPos="5.10" departSpeed="0.00" departDelay="0.00" arrival="441.00" arrivalLane="A1left1_0" arrivalPos="286.40" arrivalSpeed="12.64" duration="132.00" routeLength="897.72" waitingTime="45.00" waitingCount="2" stopTime="0.00" timeLoss="62.75" rerouteNo="0" devices="tripinfo_68" vType="DEFAULT_VEHTYPE" speedFactor="0.95" vaporized=""/>
    <tripinfo id="66" depart="297.00" departLane="top3D3_0" departPos="5.10" departSpeed="0.00" departDelay="0.00" arrival="447.00" arrivalLane="B3top1_0" arrivalPos="286.40" arrivalSpeed="13.17" duration="150.00" routeLength="1161.43" waitingTime="47.00" waitingCount="2" stopTime="0.00" timeLoss="65.29" rerouteNo="0" devices="tripinfo_66" vType="DEFAULT_VEHTYPE" speedFactor="1.02" vaporized=""/>
    <tripinfo id="69" depart="318.00" departLane="right3D3_0" departPos="5.10" departSpeed="0.00" departDelay="0.00" arrival="453.00" arrivalLane="B3top1_0" arrivalPos="286.40" arrivalSpeed="11.60" duration="135.00" routeLength="1177.07" waitingTime="19.00" waitingCount="3" stopTime="0.00" timeLoss="41.89" rerouteNo="0" devices="tripinfo_69" vType="DEFAULT_VEHTYPE" speedFactor="0.92" vaporized=""/>
    <tripinfo id="26" depart="136.00" departLane="left2A2_0" departPos="5.10" departSpeed="0.00" departDelay="0.00" arrival="456.00" arrivalLane="D0bottom3_0" arrivalPos="286.40" arrivalSpeed="12.46" duration="320.00" routeLength="2080.28" waitingTime="134.00" waitingCount="2" stopTime="0.00" timeLoss="155.55" rerouteNo="0" devices="tripinfo_26" vType="DEFAULT_VEHTYPE" speedFactor="0.92" vaporized=""/>
    <tripinfo id="6" depart="19.00" departLane="right3D3_0" departPos="5.10" departSpeed="0.00" departDelay="0.00" arrival="459.00" arrivalLane="A1left1_0" arrivalPos="286.40" arrivalSpeed="12.96" duration="440.00" routeLength="2080.05" waitingTime="250.00" waitingCount="5" stopTime="0.00" timeLoss="289.77" rerouteNo="0" devices="tripinfo_6" vType="DEFAULT_VEHTYPE" speedFactor="1.01" vaporized=""/>
    <tripinfo id="29" depart="144.00" departLane="bottom2C0_0" departPos="5.10" departSpeed="0.00" departDelay="0.00" arrival="462.00" arrivalLane="A1left1_0" arrivalPos="286.40" arrivalSpeed="13.04" duration="318.00" routeLength="1495.35" waitingTime="173.00" waitingCount="4" stopTime="0.00" timeLoss="204.36" rerouteNo="0" devices="tripinfo_29" vType="DEFAULT_VEHTYPE" speedFactor="0.96" vaporized=""/>
    <tripinfo id="21" depart="105.00" departLane="right2D2_0" departPos="5.10" departSpeed="0.00" departDelay="0.00" arrival="466.00" arrivalLane="A1left1_0" arrivalPos="286.40" arrivalSpeed="11.54" duration="361.00" routeLength="1782.59" waitingTime="181.00" waitingCount="5" stopTime="0.00" timeLoss="217.52" rerouteNo="0" devices="tripinfo_21" vType="DEFAULT_VEHTYPE" speedFactor="0.90" vaporized=""/>
    <tripinfo id="10" depart="42.00" departLane="top3D3_0" departPos="5.10" departSpeed="0.00" departDelay="0.00" arrival="467.00" arrivalLane="A1left1_1" arrivalPos="286.40" arrivalSpeed="12.16" duration="425.00" routeLength="2080.28" waitingTime="226.00" waitingCount="5" stopTime="0.00" timeLoss="269.00" rerouteNo="0" devices="tripinfo_10" vType="DEFAULT_VEHTYPE" speedFactor="0.97" vaporized=""/>
    <tripinfo id="16" depart="67.00" departLane="top3D3_0" departPos="5.10" departSpeed="0.00" departDelay="0.00" arrival="468.00" arrivalLane="A1left1_0" arrivalPos="286.40" arrivalSpeed="13.00" duration="401.00" routeLength="2080.28" waitingTime="193.00" waitingCount="6" stopTime="0.00" timeLoss="254.12" rerouteNo="0" devices="tripinfo_16" vType="DEFAULT_VEHTYPE" speedFactor="1.03" vaporized=""/>
    <tripinfo id="40" depart="188.00" departLane="top1B3_0" departPos="5.10" departSpeed="0.00" departDelay="0.00" arrival="468.00" arrivalLane="D0bottom3_0" arrivalPos="286.40" arrivalSpeed="14.58" duration="280.00" routeLength="2080.05" waitingTime="100.00" waitingCount="4" stopTime="0.00" timeLoss="139.58" rerouteNo="0" devices="tripinfo_40" vType="DEFAULT_VEHTYPE" speedFactor="1.08" vaporized=""/>
    <tripinfo id="35" depart="170.00" departLane="right3D3_0" departPos="5.10" departSpeed="0.00" departDelay="0.00" arrival="469.00" arrivalLane="A0left0_0" arrivalPos="286.40" arrivalSpeed="13.33" duration="299.00" routeLength="2380.22" waitingTime="94.00" waitingCount="5" stopTime="0.00" timeLoss="134.49" rerouteNo="0" devices="tripinfo_35" vType="DEFAULT_VEHTYPE" speedFactor="1.05" vaporized=""/>
    <tripinfo id="62" depart="282.00" departLane="left0A0_0" departPos="5.10" departSpeed="0.00" departDelay="0.00" arrival="470.00" arrivalLane="A0left0_1" arrivalPos="286.40" arrivalSpeed="14.22" duration="188.00" routeLength="1745.91" waitingTime="42.00" waitingCount="3" stopTime="0.00" timeLoss="69.77" rerouteNo="0" devices="tripinfo_62" vType="DEFAULT_VEHTYPE" speedFactor="1.08" vaporized=""/>
    <tripinfo id="86" depart="392.00" departLane="top3D3_0" departPos="5.10" departSpeed="0.00" departDelay="0.00" arrival="473.00" arrivalLane="C3top2_0" arrivalPos="286.40" arrivalSpeed="12.64" duration="81.00" routeLength="858.56" waitingTime="1.00" waitingCount="1" stopTime="0.00" timeLoss="13.03" rerouteNo="0" devices="tripinfo_86" vType="DEFAULT_VEHTYPE" speedFactor="0.94" vaporized=""/>
    <tripinfo id="38" depart="186.00" departLane="left2A2_0" departPos="5.10" departSpeed="0.00" departDelay="0.00" arrival="476.00" arrivalLane="B0bottom1_0" arrivalPos="286.40" arrivalSpeed="10.53" duration="290.00" routeLength="1479.94" waitingTime="122.00" waitingCount="4" stopTime="0.00" timeLoss="149.02" rerouteNo="0" devices="tripinfo_38" vType="DEFAULT_VEHTYPE" speedFactor="0.76" vaporized=""/>
    <tripinfo id="42" depart="200.00" departLane="left1A1_0" departPos="5.10" departSpeed="0.00" departDelay="0.00" arrival="491.00" arrivalLane="D1right1_0" arrivalPos="286.40" arrivalSpeed="13.88" duration="291.00" routeLength="1495.58" waitingTime="157.00" waitingCount="3" stopTime="0.00" timeLoss="184.37" rerouteNo="0" devices="tripinfo_42" vType="DEFAULT_VEHTYPE" speedFactor="1.01" vaporized=""/>
    <tripinfo id="53" depart="258.00" departLane="left2A2_0" departPos="5.10" departSpeed="0.00" departDelay="0.00" arrival="491.00" arrivalLane="C0bottom2_0" arrivalPos="286.40" arrivalSpeed="12.87" duration="233.00" routeLength="1780.11" waitingTime="59.00" waitingCount="5" stopTime="0.00" timeLoss="95.64" rerouteNo="0" devices="tripinfo_53" vType="DEFAULT_VEHTYPE" speedFactor="0.94" vaporized=""/>
    <tripinfo id="50" depart="243.00" departLane="right1D1_0" departPos="5.10" departSpeed="0.00" departDelay="0.00" arrival="497.00" arrivalLane="B3top1_0" arrivalPos="286.40" arrivalSpeed="14.84" duration="254.00" routeLength="1780.11" waitingTime="99.00" waitingCount="5" stopTime="0.00" timeLoss="135.95" rerouteNo="0" devices="tripinfo_50" vType="DEFAULT_VEHTYPE" speedFactor="1.09" vaporized=""/>
    <tripinfo id="63" depart="287.00" departLane="top0A3_0" departPos="5.10" departSpeed="0.00" departDelay="0.00" arrival="505.00" arrivalLane="C0bottom2_0" arrivalPos="286.40" arrivalSpeed="12.49" duration="218.00" routeLength="2080.05" waitingTime="27.00" waitingCount="3" stopTime="0.00" timeLoss="55.16" rerouteNo="0" devices="tripinfo_63" vType="DEFAULT_VEHTYPE" speedFactor="0.93" vaporized=""/>
    <tripinfo id="49" depart="234.00" departLane="left0A0_0" departPos="5.10" departSpeed="0.00" departDelay="0.00" arrival="510.00" arrivalLane="D0right0_0" arrivalPos="286.40" arrivalSpeed="13.03" duration="276.00" routeLength="1495.58" waitingTime="133.00" waitingCount="4" stopTime="0.00" timeLoss="162.91" rerouteNo="0" devices="tripinfo_49" vType="DEFAULT_VEHTYPE" speedFactor="0.96" vaporized=""/>
    <tripinfo id="84" depart="385.00" departLane="left3A3_0" departPos="5.10" departSpeed="0.00" departDelay="0.00" arrival="512.00" arrivalLane="A1left1_0" arrivalPos="286.40" arrivalSpeed="10.94" duration="127.00" routeLength="1161.43" waitingTime="7.00" waitingCount="2" stopTime="0.00" timeLoss="26.67" rerouteNo="0" devices="tripinfo_84" vType="DEFAULT_VEHTYPE" speedFactor="0.85" vaporized=""/>
    <tripinfo id="54" depart="261.00" departLane="left2A2_0" departPos="5.10" departSpeed="0.00" departDelay="2.00" arrival="518.00" arrivalLane="D0bottom3_0" arrivalPos="286.40" arrivalSpeed="14.08" duration="257.00" routeLength="2080.28" waitingTime="65.00" waitingCount="5" stopTime="0.00" timeLoss="111.84" rerouteNo="0" devices="tripinfo_54" vType="DEFAULT_VEHTYPE" speedFactor="1.04" vaporized=""/>
    <tripinfo id="71" depart="328.00" departLane="top2C3_0" departPos="5.10" departSpeed="0.00" departDelay="0.00" arrival="525.00" arrivalLane="A2left2_0" arrivalPos="286.40" arrivalSpeed="11.01" duration="197.00" routeLength="1479.94" waitingTime="54.00" waitingCount="2" stopTime="0.00" timeLoss="74.42" rerouteNo="0" devices="tripinfo_71" vType="DEFAULT_VEHTYPE" speedFactor="0.88" vaporized=""/>
    <tripinfo id="47" depart="216.00" departLane="left1A1_0" departPos="5.10" departSpeed="0.00" departDelay="0.00" arrival="535.00" arrivalLane="B3top1_0" arrivalPos="286.40" arrivalSpeed="12.23" duration="319.00" routeLength="1495.35" waitingTime="180.00" waitingCount="3" stopTime="0.00" timeLoss="201.98" rerouteNo="0" devices="tripinfo_47" vType="DEFAULT_VEHTYPE" speedFactor="0.93" vaporized=""/>
    <tripinfo id="80" depart="375.00" departLane="left1A1_0" departPos="5.10" departSpeed="0.00" departDelay="0.00" arrival="543.00" arrivalLane="A2left2_0" arrivalPos="286.40" arrivalSpeed="13.80" duration="168.00" routeLength="894.86" waitingTime="89.00" waitingCount="1" stopTime="0.00" timeLoss="101.94" rerouteNo="0" devices="tripinfo_80" vType="DEFAULT_VEHTYPE" speedFactor="1.00" vaporized=""/>
    <tripinfo id="83" depart="385.00" departLane="left1A1_0" departPos="5.10" departSpeed="0.00" departDelay="0.00" arrival="544.00" arrivalLane="A2left2_1" arrivalPos="286.40" arrivalSpeed="13.94" duration="159.00" routeLength="894.86" waitingTime="82.00" waitingCount="1" stopTime="0.00" timeLoss="95.88" rerouteNo="0" devices="tripinfo_83" vType="DEFAULT_VEHTYPE" speedFactor="1.05" vaporized=""/>
    <tripinfo id="90" depart="414.00" departLane="right3D3_0" departPos="5.10" departSpeed="0.00" departDelay="0.00" arrival="553.00" arrivalLane="B3top1_0" arrivalPos="286.40" arrivalSpeed="11.26" duration="139.00" routeLength="1177.07" waitingTime="18.00" waitingCount="2" stopTime="0.00" timeLoss="35.17" rerouteNo="0" devices="tripinfo_90" vType="DEFAULT_VEHTYPE" speedFactor="0.82" vaporized=""/>
    <tripinfo id="109" depart="524.00" departLane="top0A3_0" departPos="5.10" departSpeed="0.00" departDelay="2.00" arrival="571.00" arrivalLane="A3left3_0" arrivalPos="286.40" arrivalSpeed="16.13" duration="47.00" routeLength="576.73" waitingTime="1.00" waitingCount="1" stopTime="0.00" timeLoss="12.07" rerouteNo="0" devices="tripinfo_109" vType="DEFAULT_VEHTYPE" speedFactor="1.23" vaporized=""/>
    <tripinfo id="91" depart="431.00" departLane="right1D1_0" departPos="5.10" departSpeed="0.00" departDelay="0.00" arrival="578.00" arrivalLane="D0right0_0" arrivalPos="286.40" arrivalSpeed="13.97" duration="147.00" routeLength="894.86" waitingTime="67.00" waitingCount="2" stopTime="0.00" timeLoss="85.10" rerouteNo="0" devices="tripinfo_91" vType="DEFAULT_VEHTYPE" speedFactor="1.06" vaporized=""/>