<?xml version="1.0" encoding="UTF-8"?>

<!-- generated on 12/10/21 14:03:41 by Eclipse SUMO sumo Version 1.7.0
<configuration xmlns:xsi="http://www.w3.org/2001/XMLSchema-instance" xsi:noNamespaceSchemaLocation="http://sumo.dlr.de/xsd/sumoConfiguration.xsd">

    <input>
        <net-file value="C:\Users\longs\Desktop\RESCO-main\environments\grid4x4\grid4x4.net.xml"/>
        <route-files value="C:\Users\longs\Desktop\RESCO-main\environments\grid4x4\grid4x4_45.rou.xml"/>
    </input>

    <output>
        <tripinfo-output value="C:\Users\longs\Desktop\RESCO-main\logs\STOCHASTIC-tr1-grid4x4-0-mplight-wait\tripinfo_45.xml"/>
        <tripinfo-output.write-unfinished value="true"/>
    </output>

    <processing>
        <time-to-teleport value="-1"/>
    </processing>

    <report>
        <no-warnings value="true"/>
        <no-step-log value="true"/>
    </report>

    <traci_server>
        <remote-port value="59478"/>
    </traci_server>

    <random_number>
        <random value="true"/>
    </random_number>

</configuration>
-->

<tripinfos xmlns:xsi="http://www.w3.org/2001/XMLSchema-instance" xsi:noNamespaceSchemaLocation="http://sumo.dlr.de/xsd/tripinfo_file.xsd">
    <tripinfo id="6" depart="53.00" departLane="top3D3_0" departPos="5.10" departSpeed="0.00" departDelay="0.00" arrival="107.00" arrivalLane="D3right3_0" arrivalPos="286.40" arrivalSpeed="14.71" duration="54.00" routeLength="597.55" waitingTime="4.00" waitingCount="1" stopTime="0.00" timeLoss="14.34" rerouteNo="0" devices="tripinfo_6" vType="DEFAULT_VEHTYPE" speedFactor="1.10" vaporized=""/>
    <tripinfo id="4" depart="48.00" departLane="left2A2_0" departPos="5.10" departSpeed="0.00" departDelay="0.00" arrival="128.00" arrivalLane="A1left1_0" arrivalPos="286.40" arrivalSpeed="14.04" duration="80.00" routeLength="858.56" waitingTime="2.00" waitingCount="2" stopTime="0.00" timeLoss="19.89" rerouteNo="0" devices="tripinfo_4" vType="DEFAULT_VEHTYPE" speedFactor="1.05" vaporized=""/>
    <tripinfo id="2" depart="37.00" departLane="bottom2C0_0" departPos="5.10" departSpeed="0.00" departDelay="0.00" arrival="145.00" arrivalLane="B0bottom1_0" arrivalPos="286.40" arrivalSpeed="12.78" duration="108.00" routeLength="894.86" waitingTime="26.00" waitingCount="1" stopTime="0.00" timeLoss="38.27" rerouteNo="0" devices="tripinfo_2" vType="DEFAULT_VEHTYPE" speedFactor="0.94" vaporized=""/>
    <tripinfo id="7" depart="56.00" departLane="top3D3_0" departPos="5.10" departSpeed="0.00" departDelay="1.00" arrival="146.00" arrivalLane="C3top2_0" arrivalPos="286.40" arrivalSpeed="11.31" duration="90.00" routeLength="858.56" waitingTime="1.00" waitingCount="1" stopTime="0.00" timeLoss="15.16" rerouteNo="0" devices="tripinfo_7" vType="DEFAULT_VEHTYPE" speedFactor="0.85" vaporized=""/>
    <tripinfo id="0" depart="0.00" departLane="bottom0A0_0" departPos="5.10" departSpeed="0.00" departDelay="0.00" arrival="156.00" arrivalLane="D0bottom3_0" arrivalPos="286.40" arrivalSpeed="13.92" duration="156.00" routeLength="1461.60" waitingTime="22.00" waitingCount="4" stopTime="0.00" timeLoss="52.72" rerouteNo="0" devices="tripinfo_0" vType="DEFAULT_VEHTYPE" speedFactor="1.03" vaporized=""/>
    <tripinfo id="22" depart="120.00" departLane="right2D2_0" departPos="5.10" departSpeed="0.00" departDelay="0.00" arrival="291.00" arrivalLane="D2right2_0" arrivalPos="286.40" arrivalSpeed="12.55" duration="171.00" routeLength="1748.75" waitingTime="12.00" waitingCount="2" stopTime="0.00" timeLoss="34.06" rerouteNo="0" devices="tripinfo_22" vType="DEFAULT_VEHTYPE" speedFactor="0.94" vaporized=""/>
    <tripinfo id="5" depart="51.00" departLane="left2A2_0" departPos="5.10" departSpeed="0.00" departDelay="0.00" arrival="292.00" arrivalLane="D3top3_0" arrivalPos="286.40" arrivalSpeed="11.69" duration="241.00" routeLength="1795.52" waitingTime="64.00" waitingCount="4" stopTime="0.00" timeLoss="99.17" rerouteNo="0" devices="tripinfo_5" vType="DEFAULT_VEHTYPE" speedFactor="0.92" vaporized=""/>
    <tripinfo id="16" depart="96.00" departLane="right0D0_0" departPos="5.10" departSpeed="0.00" departDelay="0.00" arrival="301.00" arrivalLane="A2left2_1" arrivalPos="286.40" arrivalSpeed="13.30" duration="205.00" routeLength="2082.76" waitingTime="29.00" waitingCount="3" stopTime="0.00" timeLoss="59.68" rerouteNo="0" devices="tripinfo_16" vType="DEFAULT_VEHTYPE" speedFactor="1.04" vaporized=""/>
    <tripinfo id="19" depart="108.00" departLane="left1A1_0" departPos="5.10" departSpeed="0.00" departDelay="0.00" arrival="304.00" arrivalLane="B3top1_0" arrivalPos="286.40" arrivalSpeed="12.66" duration="196.00" routeLength="1495.35" waitingTime="65.00" waitingCount="2" stopTime="0.00" timeLoss="83.14" rerouteNo="0" devices="tripinfo_19" vType="DEFAULT_VEHTYPE" speedFactor="0.96" vaporized=""/>
    <tripinfo id="10" depart="66.00" departLane="left1A1_0" departPos="5.10" departSpeed="0.00" departDelay="0.00" arrival="305.00" arrivalLane="A2left2_0" arrivalPos="286.40" arrivalSpeed="9.93" duration="239.00" routeLength="894.86" waitingTime="141.00" waitingCount="2" stopTime="0.00" timeLoss="157.71" rerouteNo="0" devices="tripinfo_10" vType="DEFAULT_VEHTYPE" speedFactor="0.81" vaporized=""/>
    <tripinfo id="58" depart="257.00" departLane="right3D3_0" departPos="5.10" departSpeed="0.00" departDelay="0.00" arrival="308.00" arrivalLane="D3top3_0" arrivalPos="286.40" arrivalSpeed="13.69" duration="51.00" routeLength="576.73" waitingTime="1.00" waitingCount="1" stopTime="0.00" timeLoss="10.84" rerouteNo="0" devices="tripinfo_58" vType="DEFAULT_VEHTYPE" speedFactor="1.05" vaporized=""/>
    <tripinfo id="12" depart="75.00" departLane="right3D3_0" departPos="5.10" departSpeed="0.00" departDelay="0.00" arrival="309.00" arrivalLane="A1left1_0" arrivalPos="286.40" arrivalSpeed="14.59" duration="234.00" routeLength="2080.05" waitingTime="62.00" waitingCount="2" stopTime="0.00" timeLoss="92.40" rerouteNo="0" devices="tripinfo_12" vType="DEFAULT_VEHTYPE" speedFactor="1.07" vaporized=""/>
    <tripinfo id="18" depart="104.00" departLane="bottom0A0_0" departPos="5.10" departSpeed="0.00" departDelay="0.00" arrival="309.00" arrivalLane="D0right0_0" arrivalPos="286.40" arrivalSpeed="13.38" duration="205.00" routeLength="1479.94" waitingTime="72.00" waitingCount="4" stopTime="0.00" timeLoss="100.49" rerouteNo="0" devices="tripinfo_18" vType="DEFAULT_VEHTYPE" speedFactor="1.03" vaporized=""/>
    <tripinfo id="50" depart="238.00" departLane="top3D3_0" departPos="5.10" departSpeed="0.00" departDelay="0.00" arrival="314.00" arrivalLane="C3top2_0" arrivalPos="286.40" arrivalSpeed="12.56" duration="76.00" routeLength="858.56" waitingTime="0.00" waitingCount="0" stopTime="0.00" timeLoss="9.21" rerouteNo="0" devices="tripinfo_50" vType="DEFAULT_VEHTYPE" speedFactor="0.94" vaporized=""/>
    <tripinfo id="17" depart="101.00" departLane="left1A1_0" departPos="5.10" departSpeed="0.00" departDelay="0.00" arrival="317.00" arrivalLane="A3top0_0" arrivalPos="286.40" arrivalSpeed="12.24" duration="216.00" routeLength="1195.18" waitingTime="103.00" waitingCount="2" stopTime="0.00" timeLoss="119.43" rerouteNo="0" devices="tripinfo_17" vType="DEFAULT_VEHTYPE" speedFactor="0.90" vaporized=""/>
    <tripinfo id="27" depart="133.00" departLane="left2A2_0" departPos="5.10" departSpeed="0.00" departDelay="0.00" arrival="321.00" arrivalLane="D3right3_0" arrivalPos="286.40" arrivalSpeed="13.94" duration="188.00" routeLength="1782.59" waitingTime="33.00" waitingCount="3" stopTime="0.00" timeLoss="60.69" rerouteNo="0" devices="tripinfo_27" vType="DEFAULT_VEHTYPE" speedFactor="1.02" vaporized=""/>
    <tripinfo id="31" depart="153.00" departLane="top1B3_0" departPos="5.10" departSpeed="0.00" departDelay="0.00" arrival="330.00" arrivalLane="B3top1_0" arrivalPos="286.40" arrivalSpeed="12.79" duration="177.00" routeLength="1748.75" waitingTime="11.00" waitingCount="4" stopTime="0.00" timeLoss="43.50" rerouteNo="0" devices="tripinfo_31" vType="DEFAULT_VEHTYPE" speedFactor="0.96" vaporized=""/>
    <tripinfo id="53" depart="245.00" departLane="bottom2C0_0" departPos="5.10" departSpeed="0.00" departDelay="2.00" arrival="331.00" arrivalLane="D0right0_0" arrivalPos="286.40" arrivalSpeed="11.98" duration="86.00" routeLength="879.60" waitingTime="1.00" waitingCount="1" stopTime="0.00" timeLoss="15.92" rerouteNo="0" devices="tripinfo_53" vType="DEFAULT_VEHTYPE" speedFactor="0.92" vaporized=""/>
    <tripinfo id="13" depart="87.00" departLane="bottom3D0_0" departPos="5.10" departSpeed="0.00" departDelay="0.00" arrival="334.00" arrivalLane="C3top2_1" arrivalPos="286.40" arrivalSpeed="14.41" duration="247.00" routeLength="1782.59" waitingTime="77.00" waitingCount="3" stopTime="0.00" timeLoss="122.61" rerouteNo="0" devices="tripinfo_13" vType="DEFAULT_VEHTYPE" speedFactor="1.05" vaporized=""/>
    <tripinfo id="11" depart="66.00" departLane="bottom2C0_0" departPos="5.10" departSpeed="0.00" departDelay="0.00" arrival="339.00" arrivalLane="A2left2_1" arrivalPos="286.40" arrivalSpeed="14.63" duration="273.00" routeLength="1795.52" waitingTime="120.00" waitingCount="4" stopTime="0.00" timeLoss="152.89" rerouteNo="0" devices="tripinfo_11" vType="DEFAULT_VEHTYPE" speedFactor="1.08" vaporized=""/>
    <tripinfo id="25" depart="128.00" departLane="bottom1B0_0" departPos="5.10" departSpeed="0.00" departDelay="0.00" arrival="339.00" arrivalLane="C3top2_0" arrivalPos="286.40" arrivalSpeed="8.94" duration="211.00" routeLength="1782.72" waitingTime="13.00" waitingCount="1" stopTime="0.00" timeLoss="30.94" rerouteNo="0" devices="tripinfo_25" vType="DEFAULT_VEHTYPE" speedFactor="0.72" vaporized=""/>
    <tripinfo id="29" depart="148.00" departLane="left2A2_0" departPos="5.10" departSpeed="0.00" departDelay="0.00" arrival="339.00" arrivalLane="A0bottom0_0" arrivalPos="286.40" arrivalSpeed="13.82" duration="191.00" routeLength="1179.77" waitingTime="87.00" waitingCount="2" stopTime="0.00" timeLoss="104.55" rerouteNo="0" devices="tripinfo_29" vType="DEFAULT_VEHTYPE" speedFactor="1.00" vaporized=""/>
    <tripinfo id="42" depart="191.00" departLane="top1B3_0" departPos="5.10" departSpeed="0.00" departDelay="0.00" arrival="343.00" arrivalLane="A2left2_0" arrivalPos="286.40" arrivalSpeed="11.41" duration="152.00" routeLength="1179.77" waitingTime="32.00" waitingCount="2" stopTime="0.00" timeLoss="49.16" rerouteNo="0" devices="tripinfo_42" vType="DEFAULT_VEHTYPE" speedFactor="0.84" vaporized=""/>
    <tripinfo id="35" depart="164.00" departLane="right3D3_0" departPos="5.10" departSpeed="0.00" departDelay="0.00" arrival="345.00" arrivalLane="A3top0_0" arrivalPos="286.40" arrivalSpeed="13.57" duration="181.00" routeLength="1477.24" waitingTime="46.00" waitingCount="4" stopTime="0.00" timeLoss="77.10" rerouteNo="0" devices="tripinfo_35" vType="DEFAULT_VEHTYPE" speedFactor="1.03" vaporized=""/>
    <tripinfo id="41" depart="190.00" departLane="top0A3_0" departPos="5.10" departSpeed="0.00" departDelay="0.00" arrival="345.00" arrivalLane="C3top2_0" arrivalPos="286.40" arrivalSpeed="13.49" duration="155.00" routeLength="1197.66" waitingTime="51.00" waitingCount="2" stopTime="0.00" timeLoss="70.07" rerouteNo="0" devices="tripinfo_41" vType="DEFAULT_VEHTYPE" speedFactor="1.03" vaporized=""/>
    <tripinfo id="66" depart="296.00" departLane="bottom3D0_0" departPos="5.10" departSpeed="0.00" departDelay="0.00" arrival="347.00" arrivalLane="D0right0_0" arrivalPos="286.40" arrivalSpeed="13.18" duration="51.00" routeLength="576.73" waitingTime="1.00" waitingCount="1" stopTime="0.00" timeLoss="9.58" rerouteNo="0" devices="tripinfo_66" vType="DEFAULT_VEHTYPE" speedFactor="1.02" vaporized=""/>
    <tripinfo id="9" depart="59.00" departLane="bottom3D0_0" departPos="5.10" departSpeed="0.00" departDelay="0.00" arrival="352.00" arrivalLane="D3top3_0" arrivalPos="286.40" arrivalSpeed="12.33" duration="293.00" routeLength="1495.58" waitingTime="145.00" waitingCount="4" stopTime="0.00" timeLoss="173.88" rerouteNo="0" devices="tripinfo_9" vType="DEFAULT_VEHTYPE" speedFactor="0.91" vaporized=""/>
    <tripinfo id="34" depart="163.00" departLane="bottom2C0_0" departPos="5.10" departSpeed="0.00" departDelay="0.00" arrival="352.00" arrivalLane="D3top3_1" arrivalPos="286.40" arrivalSpeed="14.29" duration="189.00" routeLength="1782.72" waitingTime="25.00" waitingCount="4" stopTime="0.00" timeLoss="66.23" rerouteNo="0" devices="tripinfo_34" vType="DEFAULT_VEHTYPE" speedFactor="1.06" vaporized=""/>
    <tripinfo id="24" depart="124.00" departLane="bottom3D0_0" departPos="5.10" departSpeed="0.00" departDelay="0.00" arrival="353.00" arrivalLane="D3top3_0" arrivalPos="286.40" arrivalSpeed="12.51" duration="229.00" routeLength="1495.58" waitingTime="80.00" waitingCount="4" stopTime="0.00" timeLoss="110.93" rerouteNo="0" devices="tripinfo_24" vType="DEFAULT_VEHTYPE" speedFactor="0.91" vaporized=""/>
    <tripinfo id="39" depart="184.00" departLane="left3A3_0" departPos="5.10" departSpeed="0.00" departDelay="0.00" arrival="353.00" arrivalLane="B0bottom1_0" arrivalPos="286.40" arrivalSpeed="13.28" duration="169.00" routeLength="1780.11" waitingTime="13.00" waitingCount="3" stopTime="0.00" timeLoss="36.18" rerouteNo="0" devices="tripinfo_39" vType="DEFAULT_VEHTYPE" speedFactor="0.97" vaporized=""/>
    <tripinfo id="63" depart="278.00" departLane="top2C3_0" departPos="5.10" departSpeed="0.00" departDelay="0.00" arrival="355.00" arrivalLane="B3top1_0" arrivalPos="286.40" arrivalSpeed="13.72" duration="77.00" routeLength="858.56" waitingTime="2.00" waitingCount="2" stopTime="0.00" timeLoss="14.93" rerouteNo="0" devices="tripinfo_63" vType="DEFAULT_VEHTYPE" speedFactor="1.02" vaporized=""/>
    <tripinfo id="57" depart="254.00" departLane="top1B3_0" departPos="5.10" departSpeed="0.00" departDelay="0.00" arrival="358.00" arrivalLane="A3left3_0" arrivalPos="286.40" arrivalSpeed="13.85" duration="104.00" routeLength="879.60" waitingTime="31.00" waitingCount="1" stopTime="0.00" timeLoss="44.55" rerouteNo="0" devices="tripinfo_57" vType="DEFAULT_VEHTYPE" speedFactor="1.08" vaporized=""/>
    <tripinfo id="20" depart="110.00" departLane="right3D3_0" departPos="5.10" departSpeed="0.00" departDelay="0.00" arrival="367.00" arrivalLane="C0bottom2_0" arrivalPos="286.40" arrivalSpeed="14.47" duration="257.00" routeLength="1795.52" waitingTime="106.00" waitingCount="4" stopTime="0.00" timeLoss="137.26" rerouteNo="0" devices="tripinfo_20" vType="DEFAULT_VEHTYPE" speedFactor="1.09" vaporized=""/>
    <tripinfo id="30" depart="152.00" departLane="left3A3_0" departPos="5.10" departSpeed="0.00" departDelay="0.00" arrival="367.00" arrivalLane="A0left0_0" arrivalPos="286.40" arrivalSpeed="12.74" duration="215.00" routeLength="1461.60" waitingTime="81.00" waitingCount="4" stopTime="0.00" timeLoss="106.76" rerouteNo="0" devices="tripinfo_30" vType="DEFAULT_VEHTYPE" speedFactor="0.99" vaporized=""/>
    <tripinfo id="65" depart="292.00" departLane="right1D1_0" departPos="5.10" departSpeed="0.00" departDelay="0.00" arrival="383.00" arrivalLane="D3top3_0" arrivalPos="286.40" arrivalSpeed="13.99" duration="91.00" routeLength="1179.77" waitingTime="1.00" waitingCount="1" stopTime="0.00" timeLoss="11.62" rerouteNo="0" devices="tripinfo_65" vType="DEFAULT_VEHTYPE" speedFactor="1.08" vaporized=""/>
    <tripinfo id="46" depart="199.00" departLane="bottom3D0_0" departPos="5.10" departSpeed="0.00" departDelay="0.00" arrival="384.00" arrivalLane="D2right2_0" arrivalPos="286.40" arrivalSpeed="14.22" duration="185.00" routeLength="1177.07" waitingTime="81.00" waitingCount="3" stopTime="0.00" timeLoss="105.59" rerouteNo="0" devices="tripinfo_46" vType="DEFAULT_VEHTYPE" speedFactor="1.08" vaporized=""/>
    <tripinfo id="26" depart="132.00" departLane="left3A3_0" departPos="5.10" departSpeed="0.00" departDelay="0.00" arrival="389.00" arrivalLane="D2right2_0" arrivalPos="286.40" arrivalSpeed="14.28" duration="257.00" routeLength="1782.72" waitingTime="101.00" waitingCount="4" stopTime="0.00" timeLoss="140.03" rerouteNo="0" devices="tripinfo_26" vType="DEFAULT_VEHTYPE" speedFactor="1.11" vaporized=""/>
    <tripinfo id="3" depart="43.00" departLane="bottom1B0_0" departPos="5.10" departSpeed="0.00" departDelay="0.00" arrival="390.00" arrivalLane="D2right2_1" arrivalPos="286.40" arrivalSpeed="15.18" duration="347.00" routeLength="1780.11" waitingTime="199.00" waitingCount="4" stopTime="0.00" timeLoss="235.65" rerouteNo="0" devices="tripinfo_3" vType="DEFAULT_VEHTYPE" speedFactor="1.16" vaporized=""/>
    <tripinfo id="44" depart="195.00" departLane="top0A3_0" departPos="5.10" departSpeed="0.00" departDelay="0.00" arrival="390.00" arrivalLane="A0bottom0_0" arrivalPos="286.40" arrivalSpeed="12.95" duration="195.00" routeLength="1495.58" waitingTime="60.00" waitingCount="2" stopTime="0.00" timeLoss="83.86" rerouteNo="0" devices="tripinfo_44" vType="DEFAULT_VEHTYPE" speedFactor="0.97" vaporized=""/>
    <tripinfo id="43" depart="193.00" departLane="right3D3_0" departPos="5.10" departSpeed="0.00" departDelay="0.00" arrival="391.00" arrivalLane="D1right1_0" arrivalPos="286.40" arrivalSpeed="11.82" duration="198.00" routeLength="1197.66" waitingTime="89.00" waitingCount="2" stopTime="0.00" timeLoss="104.66" rerouteNo="0" devices="tripinfo_43" vType="DEFAULT_VEHTYPE" speedFactor="0.93" vaporized=""/>
    <tripinfo id="51" depart="241.00" departLane="bottom1B0_0" departPos="5.10" departSpeed="0.00" departDelay="0.00" arrival="396.00" arrivalLane="A2left2_0" arrivalPos="286.40" arrivalSpeed="12.35" duration="155.00" routeLength="1495.35" waitingTime="23.00" waitingCount="1" stopTime="0.00" timeLoss="37.03" rerouteNo="0" devices="tripinfo_51" vType="DEFAULT_VEHTYPE" speedFactor="0.92" vaporized=""/>
    <tripinfo id="59" depart="257.00" departLane="bottom0A0_0" departPos="5.10" departSpeed="0.00" departDelay="0.00" arrival="400.00" arrivalLane="A2left2_0" arrivalPos="286.40" arrivalSpeed="11.87" duration="143.00" routeLength="1197.89" waitingTime="29.00" waitingCount="1" stopTime="0.00" timeLoss="48.02" rerouteNo="0" devices="tripinfo_59" vType="DEFAULT_VEHTYPE" speedFactor="0.92" vaporized=""/>
    <tripinfo id="28" depart="136.00" departLane="top0A3_0" departPos="5.10" departSpeed="0.00" departDelay="0.00" arrival="407.00" arrivalLane="D3right3_0" arrivalPos="286.40" arrivalSpeed="16.03" duration="271.00" routeLength="1495.35" waitingTime="147.00" waitingCount="4" stopTime="0.00" timeLoss="177.05" rerouteNo="0" devices="tripinfo_28" vType="DEFAULT_VEHTYPE" speedFactor="1.16" vaporized=""/>
    <tripinfo id="38" depart="180.00" departLane="top0A3_0" departPos="5.10" departSpeed="0.00" departDelay="0.00" arrival="408.00" arrivalLane="D3right3_0" arrivalPos="286.40" arrivalSpeed="16.16" duration="228.00" routeLength="1495.35" waitingTime="101.00" waitingCount="4" stopTime="0.00" timeLoss="136.68" rerouteNo="0" devices="tripinfo_38" vType="DEFAULT_VEHTYPE" speedFactor="1.19" vaporized=""/>
    <tripinfo id="45" depart="197.00" departLane="right2D2_0" departPos="5.10" departSpeed="0.00" departDelay="0.00" arrival="418.00" arrivalLane="D0right0_0" arrivalPos="286.40" arrivalSpeed="14.34" duration="221.00" routeLength="1197.66" waitingTime="113.00" waitingCount="3" stopTime="0.00" timeLoss="138.07" rerouteNo="0" devices="tripinfo_45" vType="DEFAULT_VEHTYPE" speedFactor="1.06" vaporized=""/>
    <tripinfo id="21" depart="117.00" departLane="right2D2_0" departPos="5.10" departSpeed="0.00" departDelay="0.00" arrival="420.00" arrivalLane="A1left1_0" arrivalPos="286.40" arrivalSpeed="12.87" duration="303.00" routeLength="1782.59" waitingTime="133.00" waitingCount="4" stopTime="0.00" timeLoss="163.76" rerouteNo="0" devices="tripinfo_21" vType="DEFAULT_VEHTYPE" speedFactor="0.93" vaporized=""/>
    <tripinfo id="15" depart="88.00" departLane="top0A3_0" departPos="5.10" departSpeed="0.00" departDelay="0.00" arrival="431.00" arrivalLane="D1right1_0" arrivalPos="286.40" arrivalSpeed="13.16" duration="343.00" routeLength="2095.69" waitingTime="154.00" waitingCount="5" stopTime="0.00" timeLoss="193.83" rerouteNo="0" devices="tripinfo_15" vType="DEFAULT_VEHTYPE" speedFactor="1.02" vaporized=""/>
    <tripinfo id="62" depart="274.00" departLane="top3D3_0" departPos="5.10" departSpeed="0.00" departDelay="0.00" arrival="432.00" arrivalLane="A3top0_0" arrivalPos="286.40" arrivalSpeed="10.64" duration="158.00" routeLength="1461.60" waitingTime="5.00" waitingCount="2" stopTime="0.00" timeLoss="29.12" rerouteNo="0" devices="tripinfo_62" vType="DEFAULT_VEHTYPE" speedFactor="0.83" vaporized=""/>
    <tripinfo id="48" depart="210.00" departLane="bottom1B0_0" departPos="5.10" departSpeed="0.00" departDelay="0.00" arrival="433.00" arrivalLane="A3left3_0" arrivalPos="286.40" arrivalSpeed="12.93" duration="223.00" routeLength="1795.52" waitingTime="58.00" waitingCount="4" stopTime="0.00" timeLoss="88.25" rerouteNo="0" devices="tripinfo_48" vType="DEFAULT_VEHTYPE" speedFactor="0.96" vaporized=""/>
    <tripinfo id="55" depart="251.00" departLane="right1D1_0" departPos="5.10" departSpeed="0.00" departDelay="0.00" arrival="436.00" arrivalLane="B0bottom1_0" arrivalPos="286.40" arrivalSpeed="12.85" duration="185.00" routeLength="1495.35" waitingTime="48.00" waitingCount="2" stopTime="0.00" timeLoss="67.68" rerouteNo="0" devices="tripinfo_55" vType="DEFAULT_VEHTYPE" speedFactor="0.93" vaporized=""/>
    <tripinfo id="47" depart="207.00" departLane="right3D3_0" departPos="5.10" departSpeed="0.00" departDelay="0.00" arrival="438.00" arrivalLane="D0right0_0" arrivalPos="286.40" arrivalSpeed="14.30" duration="231.00" routeLength="1497.83" waitingTime="96.00" waitingCount="4" stopTime="0.00" timeLoss="128.64" rerouteNo="0" devices="tripinfo_47" vType="DEFAULT_VEHTYPE" speedFactor="1.07" vaporized=""/>
    <tripinfo id="76" depart="375.00" departLane="left2A2_0" departPos="5.10" departSpeed="0.00" departDelay="0.00" arrival="438.00" arrivalLane="A3left3_1" arrivalPos="286.40" arrivalSpeed="15.68" duration="63.00" routeLength="894.86" waitingTime="0.00" waitingCount="0" stopTime="0.00" timeLoss="6.79" rerouteNo="0" devices="tripinfo_76" vType="DEFAULT_VEHTYPE" speedFactor="1.17" vaporized=""/>
    <tripinfo id="70" depart="350.00" departLane="right1D1_0" departPos="5.10" departSpeed="0.00" departDelay="0.00" arrival="441.00" arrivalLane="D0bottom3_1" arrivalPos="286.40" arrivalSpeed="13.45" duration="91.00" routeLength="895.01" waitingTime="14.00" waitingCount="1" stopTime="0.00" timeLoss="24.48" rerouteNo="0" devices="tripinfo_70" vType="DEFAULT_VEHTYPE" speedFactor="0.98" vaporized=""/>
    <tripinfo id="1" depart="7.00" departLane="top0A3_0" departPos="5.10" departSpeed="0.00" departDelay="0.00" arrival="442.00" arrivalLane="D0bottom3_0" arrivalPos="286.40" arrivalSpeed="11.92" duration="435.00" routeLength="2380.22" waitingTime="195.00" waitingCount="5" stopTime="0.00" timeLoss="238.11" rerouteNo="0" devices="tripinfo_1" vType="DEFAULT_VEHTYPE" speedFactor="0.88" vaporized=""/>
    <tripinfo id="49" depart="229.00" departLane="bottom0A0_0" departPos="5.10" departSpeed="0.00" departDelay="0.00" arrival="442.00" arrivalLane="A3left3_0" arrivalPos="286.40" arrivalSpeed="12.21" duration="213.00" routeLength="1498.06" waitingTime="68.00" waitingCount="4" stopTime="0.00" timeLoss="92.83" rerouteNo="0" devices="tripinfo_49" vType="DEFAULT_VEHTYPE" speedFactor="0.91" vaporized=""/>
    <tripinfo id="23" depart="121.00" departLane="top0A3_0" departPos="5.10" departSpeed="0.00" departDelay="0.00" arrival="445.00" arrivalLane="D0bottom3_0" arrivalPos="286.40" arrivalSpeed="12.62" duration="324.00" routeLength="2380.22" waitingTime="107.00" waitingCount="3" stopTime="0.00" timeLoss="137.61" rerouteNo="0" devices="tripinfo_23" vType="DEFAULT_VEHTYPE" speedFactor="0.93" vaporized=""/>
    <tripinfo id="64" depart="282.00" departLane="left1A1_0" departPos="5.10" departSpeed="0.00" departDelay="0.00" arrival="447.00" arrivalLane="A1left1_0" arrivalPos="286.40" arrivalSpeed="14.94" duration="165.00" routeLength="1748.75" waitingTime="21.00" waitingCount="4" stopTime="0.00" timeLoss="51.08" rerouteNo="0" devices="tripinfo_64" vType="DEFAULT_VEHTYPE" speedFactor="1.12" vaporized=""/>
    <tripinfo id="37" depart="179.00" departLane="right3D3_0" departPos="5.10" departSpeed="0.00" departDelay="0.00" arrival="452.00" arrivalLane="A0left0_0" arrivalPos="286.40" arrivalSpeed="11.05" duration="273.00" routeLength="2380.22" waitingTime="45.00" waitingCount="3" stopTime="0.00" timeLoss="76.22" rerouteNo="0" devices="tripinfo_37" vType="DEFAULT_VEHTYPE" speedFactor="0.88" vaporized=""/>
    <tripinfo id="61" depart="262.00" departLane="bottom2C0_0" departPos="5.10" departSpeed="0.00" departDelay="0.00" arrival="456.00" arrivalLane="D3right3_0" arrivalPos="286.40" arrivalSpeed="16.63" duration="194.00" routeLength="1780.11" waitingTime="50.00" waitingCount="3" stopTime="0.00" timeLoss="86.70" rerouteNo="0" devices="tripinfo_61" vType="DEFAULT_VEHTYPE" speedFactor="1.21" vaporized=""/>
    <tripinfo id="33" depart="157.00" departLane="right0D0_0" departPos="5.10" departSpeed="0.00" departDelay="0.00" arrival="461.00" arrivalLane="D0right0_0" arrivalPos="286.40" arrivalSpeed="12.33" duration="304.00" routeLength="1748.75" waitingTime="140.00" waitingCount="3" stopTime="0.00" timeLoss="165.97" rerouteNo="0" devices="tripinfo_33" vType="DEFAULT_VEHTYPE" speedFactor="0.93" vaporized=""/>
    <tripinfo id="54" depart="245.00" departLane="top3D3_0" departPos="5.10" departSpeed="0.00" departDelay="0.00" arrival="465.00" arrivalLane="A2left2_0" arrivalPos="286.40" arrivalSpeed="12.35" duration="220.00" routeLength="1780.11" waitingTime="56.00" waitingCount="3" stopTime="0.00" timeLoss="82.40" rerouteNo="0" devices="tripinfo_54" vType="DEFAULT_VEHTYPE" speedFactor="0.94" vaporized=""/>
    <tripinfo id="14" depart="87.00" departLane="top3D3_0" departPos="5.10" departSpeed="0.00" departDelay="0.00" arrival="479.00" arrivalLane="A1left1_0" arrivalPos="286.40" arrivalSpeed="14.11" duration="392.00" routeLength="2080.28" waitingTime="199.00" waitingCount="6" stopTime="0.00" timeLoss="243.66" rerouteNo="0" devices="tripinfo_14" vType="DEFAULT_VEHTYPE" speedFactor="1.02" vaporized=""/>
    <tripinfo id="8" depart="57.00" departLane="right1D1_0" departPos="5.10" departSpeed="0.00" departDelay="0.00" arrival="480.00" arrivalLane="A3left3_0" arrivalPos="286.40" arrivalSpeed="12.41" duration="423.00" routeLength="2082.76" waitingTime="223.00" waitingCount="6" stopTime="0.00" timeLoss="266.13" rerouteNo="0" devices="tripinfo_8" vType="DEFAULT_VEHTYPE" speedFactor="0.96" vaporized=""/>
    <tripinfo id="36" depart="169.00" departLane="left0A0_0" departPos="5.10" departSpeed="0.00" departDelay="0.00" arrival="480.00" arrivalLane="D0right0_0" arrivalPos="286.40" arrivalSpeed="13.26" duration="311.00" routeLength="1495.58" waitingTime="180.00" waitingCount="3" stopTime="0.00" timeLoss="205.31" rerouteNo="0" devices="tripinfo_36" vType="DEFAULT_VEHTYPE" speedFactor="1.02" vaporized=""/>
    <tripinfo id="56" depart="253.00" departLane="bottom0A0_0" departPos="5.10" departSpeed="0.00" departDelay="0.00" arrival="488.00" arrivalLane="D0bottom3_0" arrivalPos="286.40" arrivalSpeed="13.13" duration="235.00" routeLength="1461.60" waitingTime="98.00" waitingCount="4" stopTime="0.00" timeLoss="126.94" rerouteNo="0" devices="tripinfo_56" vType="DEFAULT_VEHTYPE" speedFactor="0.99" vaporized=""/>
    <tripinfo id="85" depart="397.00" departLane="bottom0A0_0" departPos="5.10" departSpeed="0.00" departDelay="0.00" arrival="496.00" arrivalLane="C0bottom2_0" arrivalPos="286.40" arrivalSpeed="13.90" duration="99.00" routeLength="1161.43" waitingTime="1.00" waitingCount="1" stopTime="0.00" timeLoss="15.37" rerouteNo="0" devices="tripinfo_85" vType="DEFAULT_VEHTYPE" speedFactor="1.01" vaporized=""/>
    <tripinfo id="92" depart="422.00" departLane="bottom1B0_0" departPos="5.10" departSpeed="0.00" departDelay="0.00" arrival="502.00" arrivalLane="C0bottom2_0" arrivalPos="286.40" arrivalSpeed="12.55" duration="80.00" routeLength="858.56" waitingTime="3.00" waitingCount="1" stopTime="0.00" timeLoss="15.08" rerouteNo="0" devices="tripinfo_92" vType="DEFAULT_VEHTYPE" speedFactor="0.98" vaporized=""/>
    <tripinfo id="89" depart="416.00" departLane="left2A2_0" departPos="5.10" departSpeed="0.00" departDelay="0.00" arrival="520.00" arrivalLane="A0bottom0_0" arrivalPos="286.40" arrivalSpeed="14.33" duration="104.00" routeLength="1179.77" waitingTime="7.00" waitingCount="2" stopTime="0.00" timeLoss="24.81" rerouteNo="0" devices="tripinfo_89" vType="DEFAULT_VEHTYPE" speedFactor="1.08" vaporized=""/>
    <tripinfo id="75" depart="360.00" departLane="right1D1_0" departPos="5.10" departSpeed="0.00" departDelay="0.00" arrival="540.00" arrivalLane="D3top3_0" arrivalPos="286.40" arrivalSpeed="13.31" duration="180.00" routeLength="1179.77" waitingTime="74.00" waitingCount="2" stopTime="0.00" timeLoss="91.12" rerouteNo="0" devices="tripinfo_75" vType="DEFAULT_VEHTYPE" speedFactor="0.97" vaporized=""/>
    <tripinfo id="67" depart="307.00" departLane="left2A2_0" departPos="5.10" departSpeed="0.00" departDelay="0.00" arrival="545.00" arrivalLane="D0bottom3_0" arrivalPos="286.40" arrivalSpeed="16.14" duration="238.00" routeLength="2080.28" waitingTime="72.00" waitingCount="4" stopTime="0.00" timeLoss="110.86" rerouteNo="0" devices="tripinfo_67" vType="DEFAULT_VEHTYPE" speedFactor="1.18" vaporized=""/>
    <tripinfo id="32" depart="155.00" departLane="top3D3_0" departPos="5.10" departSpeed="0.00" departDelay="0.00" arrival="552.00" arrivalLane="A0bottom0_1" arrivalPos="286.40" arrivalSpeed="12.78" duration="397.00" routeLength="2382.93" waitingTime="172.00" waitingCount="6" stopTime="0.00" timeLoss="222.50" rerouteNo="0" devices="tripinfo_32" vType="DEFAULT_VEHTYPE" speedFactor="0.99" vaporized=""/>