<?xml version="1.0" encoding="UTF-8"?>

<!-- generated on 12/10/21 14:05:16 by Eclipse SUMO sumo Version 1.7.0
<configuration xmlns:xsi="http://www.w3.org/2001/XMLSchema-instance" xsi:noNamespaceSchemaLocation="http://sumo.dlr.de/xsd/sumoConfiguration.xsd">

    <input>
        <net-file value="C:\Users\longs\Desktop\RESCO-main\environments\grid4x4\grid4x4.net.xml"/>
        <route-files value="C:\Users\longs\Desktop\RESCO-main\environments\grid4x4\grid4x4_50.rou.xml"/>
    </input>

    <output>
        <tripinfo-output value="C:\Users\longs\Desktop\RESCO-main\logs\STOCHASTIC-tr1-grid4x4-0-mplight-wait\tripinfo_50.xml"/>
        <tripinfo-output.write-unfinished value="true"/>
    </output>

    <processing>
        <time-to-teleport value="-1"/>
    </processing>

    <report>
        <no-warnings value="true"/>
        <no-step-log value="true"/>
    </report>

    <traci_server>
        <remote-port value="59568"/>
    </traci_server>

    <random_number>
        <random value="true"/>
    </random_number>

</configuration>
-->

<tripinfos xmlns:xsi="http://www.w3.org/2001/XMLSchema-instance" xsi:noNamespaceSchemaLocation="http://sumo.dlr.de/xsd/tripinfo_file.xsd">
    <tripinfo id="0" depart="1.00" departLane="left1A1_0" departPos="5.10" departSpeed="0.00" departDelay="0.00" arrival="117.00" arrivalLane="B0bottom1_0" arrivalPos="286.40" arrivalSpeed="14.86" duration="116.00" routeLength="1179.77" waitingTime="15.00" waitingCount="3" stopTime="0.00" timeLoss="40.02" rerouteNo="0" devices="tripinfo_0" vType="DEFAULT_VEHTYPE" speedFactor="1.13" vaporized=""/>
    <tripinfo id="9" depart="35.00" departLane="top2C3_0" departPos="5.10" departSpeed="0.00" departDelay="0.00" arrival="126.00" arrivalLane="A3left3_0" arrivalPos="286.40" arrivalSpeed="14.57" duration="91.00" routeLength="1179.77" waitingTime="0.00" waitingCount="0" stopTime="0.00" timeLoss="9.54" rerouteNo="0" devices="tripinfo_9" vType="DEFAULT_VEHTYPE" speedFactor="1.06" vaporized=""/>
    <tripinfo id="20" depart="58.00" departLane="bottom2C0_0" departPos="5.10" departSpeed="0.00" departDelay="0.00" arrival="141.00" arrivalLane="D0bottom3_0" arrivalPos="286.40" arrivalSpeed="12.32" duration="83.00" routeLength="858.56" waitingTime="1.00" waitingCount="1" stopTime="0.00" timeLoss="14.10" rerouteNo="0" devices="tripinfo_20" vType="DEFAULT_VEHTYPE" speedFactor="0.91" vaporized=""/>
    <tripinfo id="13" depart="48.00" departLane="left3A3_0" departPos="5.10" departSpeed="0.00" departDelay="0.00" arrival="148.00" arrivalLane="A3top0_0" arrivalPos="286.40" arrivalSpeed="13.90" duration="100.00" routeLength="597.55" waitingTime="49.00" waitingCount="1" stopTime="0.00" timeLoss="58.87" rerouteNo="0" devices="tripinfo_13" vType="DEFAULT_VEHTYPE" speedFactor="1.08" vaporized=""/>
    <tripinfo id="6" depart="30.00" departLane="bottom0A0_0" departPos="5.10" departSpeed="0.00" departDelay="0.00" arrival="161.00" arrivalLane="A3top0_0" arrivalPos="286.40" arrivalSpeed="13.75" duration="131.00" routeLength="1495.58" waitingTime="5.00" waitingCount="2" stopTime="0.00" timeLoss="23.38" rerouteNo="0" devices="tripinfo_6" vType="DEFAULT_VEHTYPE" speedFactor="1.00" vaporized=""/>
    <tripinfo id="2" depart="8.00" departLane="top2C3_0" departPos="5.10" departSpeed="0.00" departDelay="0.00" arrival="178.00" arrivalLane="D0right0_0" arrivalPos="286.40" arrivalSpeed="14.62" duration="170.00" routeLength="1795.52" waitingTime="31.00" waitingCount="2" stopTime="0.00" timeLoss="48.89" rerouteNo="0" devices="tripinfo_2" vType="DEFAULT_VEHTYPE" speedFactor="1.08" vaporized=""/>
    <tripinfo id="4" depart="13.00" departLane="right0D0_0" departPos="5.10" departSpeed="0.00" departDelay="0.00" arrival="189.00" arrivalLane="A0left0_0" arrivalPos="286.40" arrivalSpeed="12.97" duration="176.00" routeLength="1495.58" waitingTime="45.00" waitingCount="3" stopTime="0.00" timeLoss="67.39" rerouteNo="0" devices="tripinfo_4" vType="DEFAULT_VEHTYPE" speedFactor="0.99" vaporized=""/>
    <tripinfo id="14" depart="48.00" departLane="right2D2_0" departPos="5.10" departSpeed="0.00" departDelay="0.00" arrival="190.00" arrivalLane="D0bottom3_0" arrivalPos="286.40" arrivalSpeed="12.67" duration="142.00" routeLength="1195.18" waitingTime="35.00" waitingCount="2" stopTime="0.00" timeLoss="49.63" rerouteNo="0" devices="tripinfo_14" vType="DEFAULT_VEHTYPE" speedFactor="0.94" vaporized=""/>
    <tripinfo id="37" depart="139.00" departLane="right3D3_0" departPos="5.10" departSpeed="0.00" departDelay="0.00" arrival="195.00" arrivalLane="D3top3_0" arrivalPos="286.40" arrivalSpeed="12.56" duration="56.00" routeLength="576.73" waitingTime="1.00" waitingCount="1" stopTime="0.00" timeLoss="10.64" rerouteNo="0" devices="tripinfo_37" vType="DEFAULT_VEHTYPE" speedFactor="0.94" vaporized=""/>
    <tripinfo id="33" depart="110.00" departLane="right1D1_0" departPos="5.10" departSpeed="0.00" departDelay="0.00" arrival="200.00" arrivalLane="D2right2_0" arrivalPos="286.40" arrivalSpeed="11.51" duration="90.00" routeLength="858.56" waitingTime="2.00" waitingCount="2" stopTime="0.00" timeLoss="16.84" rerouteNo="0" devices="tripinfo_33" vType="DEFAULT_VEHTYPE" speedFactor="0.86" vaporized=""/>
    <tripinfo id="24" depart="78.00" departLane="right1D1_0" departPos="5.10" departSpeed="0.00" departDelay="0.00" arrival="201.00" arrivalLane="D3top3_0" arrivalPos="286.40" arrivalSpeed="12.60" duration="123.00" routeLength="1179.77" waitingTime="13.00" waitingCount="2" stopTime="0.00" timeLoss="30.63" rerouteNo="0" devices="tripinfo_24" vType="DEFAULT_VEHTYPE" speedFactor="0.93" vaporized=""/>
    <tripinfo id="7" depart="30.00" departLane="top0A3_0" departPos="5.10" departSpeed="0.00" departDelay="0.00" arrival="206.00" arrivalLane="B0bottom1_0" arrivalPos="286.40" arrivalSpeed="15.27" duration="176.00" routeLength="1782.59" waitingTime="34.00" waitingCount="3" stopTime="0.00" timeLoss="62.99" rerouteNo="0" devices="tripinfo_7" vType="DEFAULT_VEHTYPE" speedFactor="1.15" vaporized=""/>
    <tripinfo id="16" depart="51.00" departLane="right0D0_0" departPos="5.10" departSpeed="0.00" departDelay="0.00" arrival="217.00" arrivalLane="D0right0_0" arrivalPos="286.40" arrivalSpeed="14.49" duration="166.00" routeLength="1748.75" waitingTime="20.00" waitingCount="2" stopTime="0.00" timeLoss="48.99" rerouteNo="0" devices="tripinfo_16" vType="DEFAULT_VEHTYPE" speedFactor="1.10" vaporized=""/>
    <tripinfo id="15" depart="49.00" departLane="right3D3_0" departPos="5.10" departSpeed="0.00" departDelay="0.00" arrival="227.00" arrivalLane="D3right3_0" arrivalPos="286.40" arrivalSpeed="13.87" duration="178.00" routeLength="1745.91" waitingTime="39.00" waitingCount="1" stopTime="0.00" timeLoss="57.94" rerouteNo="0" devices="tripinfo_15" vType="DEFAULT_VEHTYPE" speedFactor="1.07" vaporized=""/>
    <tripinfo id="5" depart="26.00" departLane="left3A3_0" departPos="5.10" departSpeed="0.00" departDelay="0.00" arrival="228.00" arrivalLane="D3top3_0" arrivalPos="286.40" arrivalSpeed="14.22" duration="202.00" routeLength="1498.06" waitingTime="82.00" waitingCount="2" stopTime="0.00" timeLoss="100.30" rerouteNo="0" devices="tripinfo_5" vType="DEFAULT_VEHTYPE" speedFactor="1.07" vaporized=""/>
    <tripinfo id="19" depart="58.00" departLane="right0D0_0" departPos="5.10" departSpeed="0.00" departDelay="0.00" arrival="228.00" arrivalLane="A1left1_0" arrivalPos="286.40" arrivalSpeed="14.38" duration="170.00" routeLength="1782.72" waitingTime="17.00" waitingCount="3" stopTime="0.00" timeLoss="45.27" rerouteNo="0" devices="tripinfo_19" vType="DEFAULT_VEHTYPE" speedFactor="1.04" vaporized=""/>
    <tripinfo id="3" depart="11.00" departLane="bottom1B0_0" departPos="5.10" departSpeed="0.00" departDelay="0.00" arrival="232.00" arrivalLane="D3top3_0" arrivalPos="286.40" arrivalSpeed="13.14" duration="221.00" routeLength="2082.76" waitingTime="31.00" waitingCount="3" stopTime="0.00" timeLoss="63.21" rerouteNo="0" devices="tripinfo_3" vType="DEFAULT_VEHTYPE" speedFactor="0.96" vaporized=""/>
    <tripinfo id="22" depart="70.00" departLane="right2D2_0" departPos="5.10" departSpeed="0.00" departDelay="0.00" arrival="240.00" arrivalLane="C3top2_0" arrivalPos="286.40" arrivalSpeed="12.12" duration="170.00" routeLength="1179.77" waitingTime="59.00" waitingCount="2" stopTime="0.00" timeLoss="80.78" rerouteNo="0" devices="tripinfo_22" vType="DEFAULT_VEHTYPE" speedFactor="0.96" vaporized=""/>
    <tripinfo id="8" depart="32.00" departLane="left0A0_0" departPos="5.10" departSpeed="0.00" departDelay="0.00" arrival="241.00" arrivalLane="D0right0_0" arrivalPos="286.40" arrivalSpeed="13.99" duration="209.00" routeLength="1495.58" waitingTime="76.00" waitingCount="3" stopTime="0.00" timeLoss="101.69" rerouteNo="0" devices="tripinfo_8" vType="DEFAULT_VEHTYPE" speedFactor="1.01" vaporized=""/>
    <tripinfo id="40" depart="158.00" departLane="bottom3D0_0" departPos="5.10" departSpeed="0.00" departDelay="0.00" arrival="252.00" arrivalLane="C0bottom2_0" arrivalPos="286.40" arrivalSpeed="11.51" duration="94.00" routeLength="894.86" waitingTime="7.00" waitingCount="2" stopTime="0.00" timeLoss="20.50" rerouteNo="0" devices="tripinfo_40" vType="DEFAULT_VEHTYPE" speedFactor="0.90" vaporized=""/>
    <tripinfo id="12" depart="44.00" departLane="bottom0A0_0" departPos="5.10" departSpeed="0.00" departDelay="0.00" arrival="258.00" arrivalLane="A2left2_0" arrivalPos="286.40" arrivalSpeed="13.85" duration="214.00" routeLength="1197.89" waitingTime="110.00" waitingCount="3" stopTime="0.00" timeLoss="130.94" rerouteNo="0" devices="tripinfo_12" vType="DEFAULT_VEHTYPE" speedFactor="1.05" vaporized=""/>
    <tripinfo id="17" depart="52.00" departLane="bottom0A0_0" departPos="5.10" departSpeed="0.00" departDelay="0.00" arrival="267.00" arrivalLane="A2left2_0" arrivalPos="286.40" arrivalSpeed="10.55" duration="215.00" routeLength="1197.89" waitingTime="84.00" waitingCount="2" stopTime="0.00" timeLoss="108.51" rerouteNo="0" devices="tripinfo_17" vType="DEFAULT_VEHTYPE" speedFactor="0.82" vaporized=""/>
    <tripinfo id="55" depart="214.00" departLane="left0A0_0" departPos="5.10" departSpeed="0.00" departDelay="0.00" arrival="269.00" arrivalLane="A0bottom0_0" arrivalPos="286.40" arrivalSpeed="12.01" duration="55.00" routeLength="576.73" waitingTime="0.00" waitingCount="0" stopTime="0.00" timeLoss="9.57" rerouteNo="0" devices="tripinfo_55" vType="DEFAULT_VEHTYPE" speedFactor="0.93" vaporized=""/>
    <tripinfo id="32" depart="107.00" departLane="top2C3_0" departPos="5.10" departSpeed="0.00" departDelay="0.00" arrival="271.00" arrivalLane="D2right2_0" arrivalPos="286.40" arrivalSpeed="12.02" duration="164.00" routeLength="1195.18" waitingTime="52.00" waitingCount="2" stopTime="0.00" timeLoss="70.33" rerouteNo="0" devices="tripinfo_32" vType="DEFAULT_VEHTYPE" speedFactor="0.93" vaporized=""/>
    <tripinfo id="36" depart="131.00" departLane="right0D0_0" departPos="5.10" departSpeed="0.00" departDelay="0.00" arrival="280.00" arrivalLane="D0bottom3_0" arrivalPos="286.40" arrivalSpeed="13.03" duration="149.00" routeLength="597.55" waitingTime="94.00" waitingCount="1" stopTime="0.00" timeLoss="104.16" rerouteNo="0" devices="tripinfo_36" vType="DEFAULT_VEHTYPE" speedFactor="0.98" vaporized=""/>
    <tripinfo id="51" depart="203.00" departLane="right2D2_0" departPos="5.10" departSpeed="0.00" departDelay="0.00" arrival="281.00" arrivalLane="D3right3_0" arrivalPos="286.40" arrivalSpeed="13.57" duration="78.00" routeLength="858.56" waitingTime="2.00" waitingCount="2" stopTime="0.00" timeLoss="17.57" rerouteNo="0" devices="tripinfo_51" vType="DEFAULT_VEHTYPE" speedFactor="1.06" vaporized=""/>
    <tripinfo id="11" depart="44.00" departLane="top2C3_0" departPos="5.10" departSpeed="0.00" departDelay="0.00" arrival="291.00" arrivalLane="D0bottom3_1" arrivalPos="286.40" arrivalSpeed="12.68" duration="247.00" routeLength="1782.59" waitingTime="83.00" waitingCount="4" stopTime="0.00" timeLoss="114.02" rerouteNo="0" devices="tripinfo_11" vType="DEFAULT_VEHTYPE" speedFactor="0.97" vaporized=""/>
    <tripinfo id="43" depart="163.00" departLane="right0D0_0" departPos="5.10" departSpeed="0.00" departDelay="0.00" arrival="296.00" arrivalLane="C0bottom2_0" arrivalPos="286.40" arrivalSpeed="15.84" duration="133.00" routeLength="897.72" waitingTime="66.00" waitingCount="1" stopTime="0.00" timeLoss="76.84" rerouteNo="0" devices="tripinfo_43" vType="DEFAULT_VEHTYPE" speedFactor="1.17" vaporized=""/>
    <tripinfo id="1" depart="5.00" departLane="left1A1_0" departPos="5.10" departSpeed="0.00" departDelay="0.00" arrival="297.00" arrivalLane="D0bottom3_0" arrivalPos="286.40" arrivalSpeed="9.85" duration="292.00" routeLength="1780.11" waitingTime="90.00" waitingCount="3" stopTime="0.00" timeLoss="117.77" rerouteNo="0" devices="tripinfo_1" vType="DEFAULT_VEHTYPE" speedFactor="0.74" vaporized=""/>
    <tripinfo id="53" depart="208.00" departLane="right0D0_0" departPos="5.10" departSpeed="0.00" departDelay="0.00" arrival="300.00" arrivalLane="C0bottom2_0" arrivalPos="286.40" arrivalSpeed="14.11" duration="92.00" routeLength="897.72" waitingTime="20.00" waitingCount="1" stopTime="0.00" timeLoss="32.69" rerouteNo="0" devices="tripinfo_53" vType="DEFAULT_VEHTYPE" speedFactor="1.11" vaporized=""/>
    <tripinfo id="30" depart="100.00" departLane="bottom1B0_0" departPos="5.10" departSpeed="0.00" departDelay="0.00" arrival="301.00" arrivalLane="A3top0_0" arrivalPos="286.40" arrivalSpeed="12.52" duration="201.00" routeLength="1782.59" waitingTime="28.00" waitingCount="4" stopTime="0.00" timeLoss="60.25" rerouteNo="0" devices="tripinfo_30" vType="DEFAULT_VEHTYPE" speedFactor="0.92" vaporized=""/>
    <tripinfo id="39" depart="158.00" departLane="left1A1_0" departPos="5.10" departSpeed="0.00" departDelay="0.00" arrival="305.00" arrivalLane="A2left2_0" arrivalPos="286.40" arrivalSpeed="11.94" duration="147.00" routeLength="894.86" waitingTime="67.00" waitingCount="1" stopTime="0.00" timeLoss="77.85" rerouteNo="0" devices="tripinfo_39" vType="DEFAULT_VEHTYPE" speedFactor="0.95" vaporized=""/>
    <tripinfo id="18" depart="55.00" departLane="right1D1_0" departPos="5.10" departSpeed="0.00" departDelay="0.00" arrival="306.00" arrivalLane="B3top1_0" arrivalPos="286.40" arrivalSpeed="15.19" duration="251.00" routeLength="1780.11" waitingTime="104.00" waitingCount="5" stopTime="0.00" timeLoss="139.16" rerouteNo="0" devices="tripinfo_18" vType="DEFAULT_VEHTYPE" speedFactor="1.15" vaporized=""/>
    <tripinfo id="45" depart="171.00" departLane="left3A3_0" departPos="5.10" departSpeed="0.00" departDelay="0.00" arrival="319.00" arrivalLane="C3top2_0" arrivalPos="286.40" arrivalSpeed="12.97" duration="148.00" routeLength="1197.89" waitingTime="51.00" waitingCount="1" stopTime="0.00" timeLoss="62.85" rerouteNo="0" devices="tripinfo_45" vType="DEFAULT_VEHTYPE" speedFactor="1.03" vaporized=""/>
    <tripinfo id="27" depart="85.00" departLane="top2C3_0" departPos="5.10" departSpeed="0.00" departDelay="0.00" arrival="323.00" arrivalLane="C3top2_0" arrivalPos="286.40" arrivalSpeed="12.27" duration="238.00" routeLength="1748.75" waitingTime="73.00" waitingCount="4" stopTime="0.00" timeLoss="101.09" rerouteNo="0" devices="tripinfo_27" vType="DEFAULT_VEHTYPE" speedFactor="0.93" vaporized=""/>
    <tripinfo id="26" depart="84.00" departLane="left0A0_0" departPos="5.10" departSpeed="0.00" departDelay="0.00" arrival="331.00" arrivalLane="D2right2_0" arrivalPos="286.40" arrivalSpeed="11.24" duration="247.00" routeLength="2080.05" waitingTime="39.00" waitingCount="3" stopTime="0.00" timeLoss="74.20" rerouteNo="0" devices="tripinfo_26" vType="DEFAULT_VEHTYPE" speedFactor="0.87" vaporized=""/>
    <tripinfo id="47" depart="183.00" departLane="right0D0_0" departPos="5.10" departSpeed="0.00" departDelay="0.00" arrival="331.00" arrivalLane="D3top3_0" arrivalPos="286.40" arrivalSpeed="12.87" duration="148.00" routeLength="1479.94" waitingTime="25.00" waitingCount="2" stopTime="0.00" timeLoss="42.11" rerouteNo="0" devices="tripinfo_47" vType="DEFAULT_VEHTYPE" speedFactor="1.01" vaporized=""/>
    <tripinfo id="58" depart="241.00" departLane="bottom3D0_0" departPos="5.10" departSpeed="0.00" departDelay="0.00" arrival="343.00" arrivalLane="D2right2_0" arrivalPos="286.40" arrivalSpeed="14.92" duration="102.00" routeLength="1177.07" waitingTime="6.00" waitingCount="2" stopTime="0.00" timeLoss="23.68" rerouteNo="0" devices="tripinfo_58" vType="DEFAULT_VEHTYPE" speedFactor="1.09" vaporized=""/>
    <tripinfo id="21" depart="66.00" departLane="right1D1_0" departPos="5.10" departSpeed="0.00" departDelay="0.00" arrival="348.00" arrivalLane="A0left0_0" arrivalPos="286.40" arrivalSpeed="14.04" duration="282.00" routeLength="1782.59" waitingTime="123.00" waitingCount="5" stopTime="0.00" timeLoss="158.00" rerouteNo="0" devices="tripinfo_21" vType="DEFAULT_VEHTYPE" speedFactor="1.05" vaporized=""/>
    <tripinfo id="44" depart="164.00" departLane="left3A3_0" departPos="5.10" departSpeed="0.00" departDelay="0.00" arrival="350.00" arrivalLane="D3top3_0" arrivalPos="286.40" arrivalSpeed="12.15" duration="186.00" routeLength="1498.06" waitingTime="55.00" waitingCount="2" stopTime="0.00" timeLoss="71.35" rerouteNo="0" devices="tripinfo_44" vType="DEFAULT_VEHTYPE" speedFactor="0.95" vaporized=""/>
    <tripinfo id="31" depart="104.00" departLane="top3D3_0" departPos="5.10" departSpeed="0.00" departDelay="0.00" arrival="351.00" arrivalLane="B0bottom1_0" arrivalPos="286.40" arrivalSpeed="12.50" duration="247.00" routeLength="2082.76" waitingTime="51.00" waitingCount="3" stopTime="0.00" timeLoss="83.23" rerouteNo="0" devices="tripinfo_31" vType="DEFAULT_VEHTYPE" speedFactor="0.92" vaporized=""/>
    <tripinfo id="50" depart="198.00" departLane="left0A0_0" departPos="5.10" departSpeed="0.00" departDelay="0.00" arrival="356.00" arrivalLane="C0bottom2_0" arrivalPos="286.40" arrivalSpeed="12.67" duration="158.00" routeLength="1177.07" waitingTime="40.00" waitingCount="3" stopTime="0.00" timeLoss="66.65" rerouteNo="0" devices="tripinfo_50" vType="DEFAULT_VEHTYPE" speedFactor="0.93" vaporized=""/>
    <tripinfo id="60" depart="252.00" departLane="top2C3_0" departPos="5.10" departSpeed="0.00" departDelay="0.00" arrival="359.00" arrivalLane="A3top0_0" arrivalPos="286.40" arrivalSpeed="12.32" duration="107.00" routeLength="1161.43" waitingTime="2.00" waitingCount="2" stopTime="0.00" timeLoss="19.35" rerouteNo="0" devices="tripinfo_60" vType="DEFAULT_VEHTYPE" speedFactor="0.96" vaporized=""/>
    <tripinfo id="41" depart="161.00" departLane="bottom2C0_0" departPos="5.10" departSpeed="0.00" departDelay="0.00" arrival="360.00" arrivalLane="C0bottom2_0" arrivalPos="286.40" arrivalSpeed="12.94" duration="199.00" routeLength="1748.75" waitingTime="37.00" waitingCount="5" stopTime="0.00" timeLoss="68.53" rerouteNo="0" devices="tripinfo_41" vType="DEFAULT_VEHTYPE" speedFactor="0.98" vaporized=""/>
    <tripinfo id="23" depart="72.00" departLane="top0A3_0" departPos="5.10" departSpeed="0.00" departDelay="0.00" arrival="369.00" arrivalLane="B0bottom1_0" arrivalPos="286.40" arrivalSpeed="12.79" duration="297.00" routeLength="1782.59" waitingTime="140.00" waitingCount="2" stopTime="0.00" timeLoss="164.82" rerouteNo="0" devices="tripinfo_23" vType="DEFAULT_VEHTYPE" speedFactor="0.98" vaporized=""/>
    <tripinfo id="46" depart="174.00" departLane="left1A1_0" departPos="5.10" departSpeed="0.00" departDelay="0.00" arrival="369.00" arrivalLane="D3right3_0" arrivalPos="286.40" arrivalSpeed="12.54" duration="195.00" routeLength="2080.05" waitingTime="12.00" waitingCount="2" stopTime="0.00" timeLoss="41.38" rerouteNo="0" devices="tripinfo_46" vType="DEFAULT_VEHTYPE" speedFactor="0.98" vaporized=""/>
    <tripinfo id="10" depart="42.00" departLane="right2D2_0" departPos="5.10" departSpeed="0.00" departDelay="0.00" arrival="370.00" arrivalLane="A0left0_0" arrivalPos="286.40" arrivalSpeed="12.13" duration="328.00" routeLength="2080.05" waitingTime="133.00" waitingCount="5" stopTime="0.00" timeLoss="166.17" rerouteNo="0" devices="tripinfo_10" vType="DEFAULT_VEHTYPE" speedFactor="0.93" vaporized=""/>
    <tripinfo id="42" depart="162.00" departLane="left2A2_0" departPos="5.10" departSpeed="0.00" departDelay="0.00" arrival="371.00" arrivalLane="C0bottom2_0" arrivalPos="286.40" arrivalSpeed="12.57" duration="209.00" routeLength="1780.11" waitingTime="41.00" waitingCount="3" stopTime="0.00" timeLoss="68.09" rerouteNo="0" devices="tripinfo_42" vType="DEFAULT_VEHTYPE" speedFactor="0.91" vaporized=""/>
    <tripinfo id="25" depart="79.00" departLane="left3A3_0" departPos="5.10" departSpeed="0.00" departDelay="0.00" arrival="389.00" arrivalLane="D2right2_0" arrivalPos="286.40" arrivalSpeed="13.09" duration="310.00" routeLength="1782.72" waitingTime="145.00" waitingCount="5" stopTime="0.00" timeLoss="178.59" rerouteNo="0" devices="tripinfo_25" vType="DEFAULT_VEHTYPE" speedFactor="0.99" vaporized=""/>
    <tripinfo id="54" depart="211.00" departLane="bottom0A0_0" departPos="5.10" departSpeed="0.00" departDelay="0.00" arrival="389.00" arrivalLane="A1left1_0" arrivalPos="286.40" arrivalSpeed="12.58" duration="178.00" routeLength="897.72" waitingTime="97.00" waitingCount="2" stopTime="0.00" timeLoss="112.71" rerouteNo="0" devices="tripinfo_54" vType="DEFAULT_VEHTYPE" speedFactor="1.00" vaporized=""/>
    <tripinfo id="28" depart="93.00" departLane="left3A3_0" departPos="5.10" departSpeed="0.00" departDelay="0.00" arrival="391.00" arrivalLane="D2right2_0" arrivalPos="286.40" arrivalSpeed="12.51" duration="298.00" routeLength="1782.72" waitingTime="129.00" waitingCount="4" stopTime="0.00" timeLoss="167.24" rerouteNo="0" devices="tripinfo_28" vType="DEFAULT_VEHTYPE" speedFactor="0.99" vaporized=""/>
    <tripinfo id="52" depart="206.00" departLane="right2D2_0" departPos="5.10" departSpeed="0.00" departDelay="3.00" arrival="408.00" arrivalLane="D0right0_0" arrivalPos="286.40" arrivalSpeed="13.98" duration="202.00" routeLength="1197.66" waitingTime="101.00" waitingCount="2" stopTime="0.00" timeLoss="119.88" rerouteNo="0" devices="tripinfo_52" vType="DEFAULT_VEHTYPE" speedFactor="1.06" vaporized=""/>
    <tripinfo id="56" depart="215.00" departLane="left1A1_0" departPos="5.10" departSpeed="0.00" departDelay="0.00" arrival="429.00" arrivalLane="A3left3_0" arrivalPos="286.40" arrivalSpeed="13.45" duration="214.00" routeLength="1197.66" waitingTime="103.00" waitingCount="3" stopTime="0.00" timeLoss="127.57" rerouteNo="0" devices="tripinfo_56" vType="DEFAULT_VEHTYPE" speedFactor="1.01" vaporized=""/>
    <tripinfo id="65" depart="332.00" departLane="top3D3_0" departPos="5.10" departSpeed="0.00" departDelay="0.00" arrival="429.00" arrivalLane="D2right2_0" arrivalPos="286.40" arrivalSpeed="13.90" duration="97.00" routeLength="897.72" waitingTime="16.00" waitingCount="2" stopTime="0.00" timeLoss="31.57" rerouteNo="0" devices="tripinfo_65" vType="DEFAULT_VEHTYPE" speedFactor="1.00" vaporized=""/>
    <tripinfo id="38" depart="153.00" departLane="right2D2_0" departPos="5.10" departSpeed="0.00" departDelay="0.00" arrival="446.00" arrivalLane="A3left3_0" arrivalPos="286.40" arrivalSpeed="15.35" duration="293.00" routeLength="1782.72" waitingTime="152.00" waitingCount="3" stopTime="0.00" timeLoss="180.05" rerouteNo="0" devices="tripinfo_38" vType="DEFAULT_VEHTYPE" speedFactor="1.15" vaporized=""/>
    <tripinfo id="35" depart="118.00" departLane="top3D3_0" departPos="5.10" departSpeed="0.00" departDelay="0.00" arrival="458.00" arrivalLane="A1left1_0" arrivalPos="286.40" arrivalSpeed="13.10" duration="340.00" routeLength="2080.28" waitingTime="155.00" waitingCount="4" stopTime="0.00" timeLoss="194.54" rerouteNo="0" devices="tripinfo_35" vType="DEFAULT_VEHTYPE" speedFactor="1.04" vaporized=""/>
    <tripinfo id="29" depart="99.00" departLane="right0D0_0" departPos="5.10" departSpeed="0.00" departDelay="0.00" arrival="460.00" arrivalLane="A3top0_0" arrivalPos="286.40" arrivalSpeed="13.51" duration="361.00" routeLength="2380.45" waitingTime="156.00" waitingCount="6" stopTime="0.00" timeLoss="196.86" rerouteNo="0" devices="tripinfo_29" vType="DEFAULT_VEHTYPE" speedFactor="1.05" vaporized=""/>
    <tripinfo id="75" depart="378.00" departLane="bottom1B0_0" departPos="5.10" departSpeed="0.00" departDelay="0.00" arrival="464.00" arrivalLane="C0bottom2_0" arrivalPos="286.40" arrivalSpeed="11.83" duration="86.00" routeLength="858.56" waitingTime="2.00" waitingCount="2" stopTime="0.00" timeLoss="17.39" rerouteNo="0" devices="tripinfo_75" vType="DEFAULT_VEHTYPE" speedFactor="0.92" vaporized=""/>
    <tripinfo id="34" depart="112.00" departLane="bottom1B0_0" departPos="5.10" departSpeed="0.00" departDelay="0.00" arrival="483.00" arrivalLane="C3top2_0" arrivalPos="286.40" arrivalSpeed="11.34" duration="371.00" routeLength="1782.72" waitingTime="185.00" waitingCount="5" stopTime="0.00" timeLoss="219.32" rerouteNo="0" devices="tripinfo_34" vType="DEFAULT_VEHTYPE" speedFactor="0.86" vaporized=""/>
    <tripinfo id="62" depart="314.00" departLane="bottom3D0_0" departPos="5.10" departSpeed="0.00" departDelay="0.00" arrival="492.00" arrivalLane="A1left1_0" arrivalPos="286.40" arrivalSpeed="12.49" duration="178.00" routeLength="1795.52" waitingTime="20.00" waitingCount="3" stopTime="0.00" timeLoss="46.24" rerouteNo="0" devices="tripinfo_62" vType="DEFAULT_VEHTYPE" speedFactor="0.99" vaporized=""/>
    <tripinfo id="69" depart="344.00" departLane="top3D3_0" departPos="5.10" departSpeed="0.00" departDelay="0.00" arrival="496.00" arrivalLane="A3top0_0" arrivalPos="286.40" arrivalSpeed="13.63" duration="152.00" routeLength="1461.60" waitingTime="24.00" waitingCount="3" stopTime="0.00" timeLoss="46.18" rerouteNo="0" devices="tripinfo_69" vType="DEFAULT_VEHTYPE" speedFactor="1.01" vaporized=""/>
    <tripinfo id="57" depart="225.00" departLane="top0A3_0" departPos="5.10" departSpeed="0.00" departDelay="0.00" arrival="500.00" arrivalLane="D0bottom3_0" arrivalPos="286.40" arrivalSpeed="12.63" duration="275.00" routeLength="2380.22" waitingTime="54.00" waitingCount="4" stopTime="0.00" timeLoss="93.88" rerouteNo="0" devices="tripinfo_57" vType="DEFAULT_VEHTYPE" speedFactor="0.96" vaporized=""/>
    <tripinfo id="66" depart="338.00" departLane="top0A3_0" departPos="5.10" departSpeed="0.00" departDelay="0.00" arrival="502.00" arrivalLane="A1left1_0" arrivalPos="286.40" arrivalSpeed="10.95" duration="164.00" routeLength="1177.07" waitingTime="39.00" waitingCount="2" stopTime="0.00" timeLoss="59.62" rerouteNo="0" devices="tripinfo_66" vType="DEFAULT_VEHTYPE" speedFactor="0.83" vaporized=""/>
    <tripinfo id="59" depart="252.00" departLane="left2A2_0" departPos="5.10" departSpeed="0.00" departDelay="0.00" arrival="503.00" arrivalLane="D0bottom3_0" arrivalPos="286.40" arrivalSpeed="12.39" duration="251.00" routeLength="2080.28" waitingTime="57.00" waitingCount="2" stopTime="0.00" timeLoss="87.34" rerouteNo="0" devices="tripinfo_59" vType="DEFAULT_VEHTYPE" speedFactor="0.92" vaporized=""/>
    <tripinfo id="70" depart="346.00" departLane="top0A3_0" departPos="5.10" departSpeed="0.00" departDelay="0.00" arrival="503.00" arrivalLane="A1left1_1" arrivalPos="286.40" arrivalSpeed="12.10" duration="157.00" routeLength="1177.07" waitingTime="36.00" waitingCount="2" stopTime="0.00" timeLoss="63.24" rerouteNo="0" devices="tripinfo_70" vType="DEFAULT_VEHTYPE" speedFactor="0.92" vaporized=""/>
    <tripinfo id="64" depart="318.00" departLane="left2A2_0" departPos="5.10" departSpeed="0.00" departDelay="0.00" arrival="519.00" arrivalLane="B3top1_0" arrivalPos="286.40" arrivalSpeed="13.52" duration="201.00" routeLength="1195.18" waitingTime="93.00" waitingCount="3" stopTime="0.00" timeLoss="113.72" rerouteNo="0" devices="tripinfo_64" vType="DEFAULT_VEHTYPE" speedFactor="0.99" vaporized=""/>
    <tripinfo id="67" depart="341.00" departLane="top0A3_0" departPos="5.10" departSpeed="0.00" departDelay="3.00" arrival="527.00" arrivalLane="A0bottom0_0" arrivalPos="286.40" arrivalSpeed="14.45" duration="186.00" routeLength="1495.58" waitingTime="43.00" waitingCount="4" stopTime="0.00" timeLoss="86.93" rerouteNo="0" devices="tripinfo_67" vType="DEFAULT_VEHTYPE" speedFactor="1.09" vaporized=""/>
    <tripinfo id="49" depart="193.00" departLane="right2D2_0" departPos="5.10" departSpeed="0.00" departDelay="0.00" arrival="528.00" arrivalLane="B0bottom1_0" arrivalPos="286.40" arrivalSpeed="14.30" duration="335.00" routeLength="1795.52" waitingTime="186.00" waitingCount="4" stopTime="0.00" timeLoss="216.98" rerouteNo="0" devices="tripinfo_49" vType="DEFAULT_VEHTYPE" speedFactor="1.10" vaporized=""/>
    <tripinfo id="48" depart="185.00" departLane="left0A0_0" departPos="5.10" departSpeed="0.00" departDelay="0.00" arrival="542.00" arrivalLane="D3top3_0" arrivalPos="286.40" arrivalSpeed="12.14" duration="357.00" routeLength="2395.86" waitingTime="128.00" waitingCount="5" stopTime="0.00" timeLoss="167.47" rerouteNo="0" devices="tripinfo_48" vType="DEFAULT_VEHTYPE" speedFactor="0.92" vaporized=""/>
    <tripinfo id="82" depart="406.00" departLane="bottom3D0_0" departPos="5.10" departSpeed="0.00" departDelay="0.00" arrival="543.00" arrivalLane="D2right2_0" arrivalPos="286.40" arrivalSpeed="11.35" duration="137.00" routeLength="1177.07" waitingTime="16.00" waitingCount="2" stopTime="0.00" timeLoss="36.45" rerouteNo="0" devices="tripinfo_82" vType="DEFAULT_VEHTYPE" speedFactor="0.86" vaporized=""/>
    <tripinfo id="77" depart="398.00" departLane="top3D3_0" departPos="5.10" departSpeed="0.00" departDelay="0.00" arrival="549.00" arrivalLane="D2right2_0" arrivalPos="286.40" arrivalSpeed="12.93" duration="151.00" routeLength="897.72" waitingTime="68.00" waitingCount="2" stopTime="0.00" timeLoss="86.73" rerouteNo="0" devices="tripinfo_77" vType="DEFAULT_VEHTYPE" speedFactor="1.02" vaporized=""/>