<?xml version="1.0" encoding="UTF-8"?>

<!-- generated on 12/10/21 14:11:36 by Eclipse SUMO sumo Version 1.7.0
<configuration xmlns:xsi="http://www.w3.org/2001/XMLSchema-instance" xsi:noNamespaceSchemaLocation="http://sumo.dlr.de/xsd/sumoConfiguration.xsd">

    <input>
        <net-file value="C:\Users\longs\Desktop\RESCO-main\environments\grid4x4\grid4x4.net.xml"/>
        <route-files value="C:\Users\longs\Desktop\RESCO-main\environments\grid4x4\grid4x4_73.rou.xml"/>
    </input>

    <output>
        <tripinfo-output value="C:\Users\longs\Desktop\RESCO-main\logs\STOCHASTIC-tr1-grid4x4-0-mplight-wait\tripinfo_73.xml"/>
        <tripinfo-output.write-unfinished value="true"/>
    </output>

    <processing>
        <time-to-teleport value="-1"/>
    </processing>

    <report>
        <no-warnings value="true"/>
        <no-step-log value="true"/>
    </report>

    <traci_server>
        <remote-port value="59815"/>
    </traci_server>

    <random_number>
        <random value="true"/>
    </random_number>

</configuration>
-->

<tripinfos xmlns:xsi="http://www.w3.org/2001/XMLSchema-instance" xsi:noNamespaceSchemaLocation="http://sumo.dlr.de/xsd/tripinfo_file.xsd">
    <tripinfo id="1" depart="9.00" departLane="bottom2C0_0" departPos="5.10" departSpeed="0.00" departDelay="0.00" arrival="101.00" arrivalLane="D0right0_0" arrivalPos="286.40" arrivalSpeed="12.33" duration="92.00" routeLength="879.60" waitingTime="6.00" waitingCount="2" stopTime="0.00" timeLoss="20.83" rerouteNo="0" devices="tripinfo_1" vType="DEFAULT_VEHTYPE" speedFactor="0.90" vaporized=""/>
    <tripinfo id="13" depart="64.00" departLane="right1D1_0" departPos="5.10" departSpeed="0.00" departDelay="0.00" arrival="139.00" arrivalLane="D0right0_0" arrivalPos="286.40" arrivalSpeed="13.96" duration="75.00" routeLength="894.86" waitingTime="1.00" waitingCount="1" stopTime="0.00" timeLoss="12.65" rerouteNo="0" devices="tripinfo_13" vType="DEFAULT_VEHTYPE" speedFactor="1.06" vaporized=""/>
    <tripinfo id="9" depart="44.00" departLane="top1B3_0" departPos="5.10" departSpeed="0.00" departDelay="0.00" arrival="141.00" arrivalLane="A3top0_0" arrivalPos="286.40" arrivalSpeed="10.01" duration="97.00" routeLength="858.56" waitingTime="1.00" waitingCount="1" stopTime="0.00" timeLoss="12.37" rerouteNo="0" devices="tripinfo_9" vType="DEFAULT_VEHTYPE" speedFactor="0.75" vaporized=""/>
    <tripinfo id="6" depart="35.00" departLane="bottom0A0_0" departPos="5.10" departSpeed="0.00" departDelay="0.00" arrival="194.00" arrivalLane="D0bottom3_0" arrivalPos="286.40" arrivalSpeed="12.92" duration="159.00" routeLength="1461.60" waitingTime="23.00" waitingCount="3" stopTime="0.00" timeLoss="45.95" rerouteNo="0" devices="tripinfo_6" vType="DEFAULT_VEHTYPE" speedFactor="0.95" vaporized=""/>
    <tripinfo id="10" depart="45.00" departLane="bottom2C0_0" departPos="5.10" departSpeed="0.00" departDelay="0.00" arrival="203.00" arrivalLane="A1left1_0" arrivalPos="286.40" arrivalSpeed="13.27" duration="158.00" routeLength="1495.35" waitingTime="24.00" waitingCount="2" stopTime="0.00" timeLoss="46.64" rerouteNo="0" devices="tripinfo_10" vType="DEFAULT_VEHTYPE" speedFactor="0.98" vaporized=""/>
    <tripinfo id="15" depart="65.00" departLane="right3D3_0" departPos="5.10" departSpeed="0.00" departDelay="0.00" arrival="221.00" arrivalLane="A3top0_0" arrivalPos="286.40" arrivalSpeed="15.43" duration="156.00" routeLength="1477.24" waitingTime="36.00" waitingCount="3" stopTime="0.00" timeLoss="62.53" rerouteNo="0" devices="tripinfo_15" vType="DEFAULT_VEHTYPE" speedFactor="1.15" vaporized=""/>
    <tripinfo id="17" depart="74.00" departLane="bottom3D0_0" departPos="5.10" departSpeed="0.00" departDelay="0.00" arrival="228.00" arrivalLane="A1left1_0" arrivalPos="286.40" arrivalSpeed="14.83" duration="154.00" routeLength="1795.52" waitingTime="16.00" waitingCount="2" stopTime="0.00" timeLoss="34.24" rerouteNo="0" devices="tripinfo_17" vType="DEFAULT_VEHTYPE" speedFactor="1.09" vaporized=""/>
    <tripinfo id="33" depart="142.00" departLane="top3D3_0" departPos="5.10" departSpeed="0.00" departDelay="0.00" arrival="229.00" arrivalLane="C3top2_0" arrivalPos="286.40" arrivalSpeed="11.61" duration="87.00" routeLength="858.56" waitingTime="2.00" waitingCount="2" stopTime="0.00" timeLoss="18.70" rerouteNo="0" devices="tripinfo_33" vType="DEFAULT_VEHTYPE" speedFactor="0.92" vaporized=""/>
    <tripinfo id="2" depart="9.00" departLane="right3D3_0" departPos="5.10" departSpeed="0.00" departDelay="0.00" arrival="231.00" arrivalLane="D3right3_0" arrivalPos="286.40" arrivalSpeed="13.03" duration="222.00" routeLength="1745.91" waitingTime="47.00" waitingCount="5" stopTime="0.00" timeLoss="86.06" rerouteNo="0" devices="tripinfo_2" vType="DEFAULT_VEHTYPE" speedFactor="0.94" vaporized=""/>
    <tripinfo id="3" depart="25.00" departLane="right0D0_0" departPos="5.10" departSpeed="0.00" departDelay="0.00" arrival="240.00" arrivalLane="D3top3_0" arrivalPos="286.40" arrivalSpeed="12.23" duration="215.00" routeLength="1479.94" waitingTime="79.00" waitingCount="3" stopTime="0.00" timeLoss="101.48" rerouteNo="0" devices="tripinfo_3" vType="DEFAULT_VEHTYPE" speedFactor="0.94" vaporized=""/>
    <tripinfo id="30" depart="131.00" departLane="top0A3_0" departPos="5.10" departSpeed="0.00" departDelay="0.00" arrival="246.00" arrivalLane="A2left2_0" arrivalPos="286.40" arrivalSpeed="14.40" duration="115.00" routeLength="876.90" waitingTime="38.00" waitingCount="1" stopTime="0.00" timeLoss="53.99" rerouteNo="0" devices="tripinfo_30" vType="DEFAULT_VEHTYPE" speedFactor="1.05" vaporized=""/>
    <tripinfo id="12" depart="58.00" departLane="top1B3_0" departPos="5.10" departSpeed="0.00" departDelay="0.00" arrival="252.00" arrivalLane="A1left1_0" arrivalPos="286.40" arrivalSpeed="12.16" duration="194.00" routeLength="1479.94" waitingTime="42.00" waitingCount="4" stopTime="0.00" timeLoss="72.35" rerouteNo="0" devices="tripinfo_12" vType="DEFAULT_VEHTYPE" speedFactor="0.89" vaporized=""/>
    <tripinfo id="16" depart="71.00" departLane="left2A2_0" departPos="5.10" departSpeed="0.00" departDelay="0.00" arrival="253.00" arrivalLane="A0left0_0" arrivalPos="286.40" arrivalSpeed="11.25" duration="182.00" routeLength="1161.43" waitingTime="67.00" waitingCount="2" stopTime="0.00" timeLoss="84.13" rerouteNo="0" devices="tripinfo_16" vType="DEFAULT_VEHTYPE" speedFactor="0.87" vaporized=""/>
    <tripinfo id="40" depart="182.00" departLane="bottom3D0_0" departPos="5.10" departSpeed="0.00" departDelay="0.00" arrival="254.00" arrivalLane="C0bottom2_0" arrivalPos="286.40" arrivalSpeed="13.23" duration="72.00" routeLength="894.86" waitingTime="0.00" waitingCount="0" stopTime="0.00" timeLoss="7.68" rerouteNo="0" devices="tripinfo_40" vType="DEFAULT_VEHTYPE" speedFactor="1.03" vaporized=""/>
    <tripinfo id="28" depart="120.00" departLane="right2D2_0" departPos="5.10" departSpeed="0.00" departDelay="0.00" arrival="271.00" arrivalLane="D1right1_0" arrivalPos="286.40" arrivalSpeed="12.87" duration="151.00" routeLength="894.86" waitingTime="65.00" waitingCount="2" stopTime="0.00" timeLoss="80.88" rerouteNo="0" devices="tripinfo_28" vType="DEFAULT_VEHTYPE" speedFactor="0.94" vaporized=""/>
    <tripinfo id="14" depart="64.00" departLane="top0A3_0" departPos="5.10" departSpeed="0.00" departDelay="0.00" arrival="276.00" arrivalLane="A1left1_0" arrivalPos="286.40" arrivalSpeed="12.06" duration="212.00" routeLength="1177.07" waitingTime="100.00" waitingCount="1" stopTime="0.00" timeLoss="120.17" rerouteNo="0" devices="tripinfo_14" vType="DEFAULT_VEHTYPE" speedFactor="0.93" vaporized=""/>
    <tripinfo id="0" depart="7.00" departLane="top2C3_0" departPos="5.10" departSpeed="0.00" departDelay="0.00" arrival="277.00" arrivalLane="B0bottom1_0" arrivalPos="286.40" arrivalSpeed="14.75" duration="270.00" routeLength="1782.72" waitingTime="113.00" waitingCount="4" stopTime="0.00" timeLoss="149.05" rerouteNo="0" devices="tripinfo_0" vType="DEFAULT_VEHTYPE" speedFactor="1.07" vaporized=""/>
    <tripinfo id="32" depart="139.00" departLane="bottom1B0_0" departPos="5.10" departSpeed="0.00" departDelay="0.00" arrival="281.00" arrivalLane="D0bottom3_0" arrivalPos="286.40" arrivalSpeed="16.04" duration="142.00" routeLength="1161.43" waitingTime="46.00" waitingCount="3" stopTime="0.00" timeLoss="69.77" rerouteNo="0" devices="tripinfo_32" vType="DEFAULT_VEHTYPE" speedFactor="1.19" vaporized=""/>
    <tripinfo id="5" depart="30.00" departLane="top1B3_0" departPos="5.10" departSpeed="0.00" departDelay="0.00" arrival="288.00" arrivalLane="D1right1_0" arrivalPos="286.40" arrivalSpeed="13.91" duration="258.00" routeLength="1795.52" waitingTime="102.00" waitingCount="4" stopTime="0.00" timeLoss="134.23" rerouteNo="0" devices="tripinfo_5" vType="DEFAULT_VEHTYPE" speedFactor="1.05" vaporized=""/>
    <tripinfo id="22" depart="96.00" departLane="bottom2C0_0" departPos="5.10" departSpeed="0.00" departDelay="0.00" arrival="289.00" arrivalLane="A1left1_0" arrivalPos="286.40" arrivalSpeed="13.62" duration="193.00" routeLength="1495.35" waitingTime="60.00" waitingCount="3" stopTime="0.00" timeLoss="86.09" rerouteNo="0" devices="tripinfo_22" vType="DEFAULT_VEHTYPE" speedFactor="1.01" vaporized=""/>
    <tripinfo id="38" depart="180.00" departLane="right0D0_0" departPos="5.10" departSpeed="0.00" departDelay="0.00" arrival="298.00" arrivalLane="D0bottom3_0" arrivalPos="286.40" arrivalSpeed="14.71" duration="118.00" routeLength="597.55" waitingTime="65.00" waitingCount="1" stopTime="0.00" timeLoss="76.60" rerouteNo="0" devices="tripinfo_38" vType="DEFAULT_VEHTYPE" speedFactor="1.07" vaporized=""/>
    <tripinfo id="11" depart="54.00" departLane="left1A1_0" departPos="5.10" departSpeed="0.00" departDelay="0.00" arrival="310.00" arrivalLane="A3left3_0" arrivalPos="286.40" arrivalSpeed="13.49" duration="256.00" routeLength="1197.66" waitingTime="143.00" waitingCount="3" stopTime="0.00" timeLoss="167.18" rerouteNo="0" devices="tripinfo_11" vType="DEFAULT_VEHTYPE" speedFactor="0.99" vaporized=""/>
    <tripinfo id="26" depart="118.00" departLane="right0D0_0" departPos="5.10" departSpeed="0.00" departDelay="0.00" arrival="310.00" arrivalLane="D3right3_0" arrivalPos="286.40" arrivalSpeed="14.63" duration="192.00" routeLength="1461.60" waitingTime="71.00" waitingCount="2" stopTime="0.00" timeLoss="92.59" rerouteNo="0" devices="tripinfo_26" vType="DEFAULT_VEHTYPE" speedFactor="1.09" vaporized=""/>
    <tripinfo id="27" depart="120.00" departLane="bottom0A0_0" departPos="5.10" departSpeed="0.00" departDelay="0.00" arrival="313.00" arrivalLane="A2left2_0" arrivalPos="286.40" arrivalSpeed="11.07" duration="193.00" routeLength="1197.89" waitingTime="75.00" waitingCount="2" stopTime="0.00" timeLoss="91.72" rerouteNo="0" devices="tripinfo_27" vType="DEFAULT_VEHTYPE" speedFactor="0.86" vaporized=""/>
    <tripinfo id="31" depart="132.00" departLane="bottom0A0_0" departPos="5.10" departSpeed="0.00" departDelay="0.00" arrival="313.00" arrivalLane="A3top0_0" arrivalPos="286.40" arrivalSpeed="13.10" duration="181.00" routeLength="1495.58" waitingTime="46.00" waitingCount="2" stopTime="0.00" timeLoss="67.67" rerouteNo="0" devices="tripinfo_31" vType="DEFAULT_VEHTYPE" speedFactor="0.95" vaporized=""/>
    <tripinfo id="7" depart="41.00" departLane="top2C3_0" departPos="5.10" departSpeed="0.00" departDelay="0.00" arrival="320.00" arrivalLane="C0bottom2_0" arrivalPos="286.40" arrivalSpeed="12.74" duration="279.00" routeLength="1495.58" waitingTime="135.00" waitingCount="4" stopTime="0.00" timeLoss="168.25" rerouteNo="0" devices="tripinfo_7" vType="DEFAULT_VEHTYPE" speedFactor="0.98" vaporized=""/>
    <tripinfo id="42" depart="188.00" departLane="right1D1_0" departPos="5.10" departSpeed="0.00" departDelay="0.00" arrival="324.00" arrivalLane="C0bottom2_1" arrivalPos="286.40" arrivalSpeed="12.56" duration="136.00" routeLength="1195.18" waitingTime="26.00" waitingCount="2" stopTime="0.00" timeLoss="45.77" rerouteNo="0" devices="tripinfo_42" vType="DEFAULT_VEHTYPE" speedFactor="0.96" vaporized=""/>
    <tripinfo id="41" depart="184.00" departLane="left3A3_0" departPos="5.10" departSpeed="0.00" departDelay="0.00" arrival="325.00" arrivalLane="C3top2_0" arrivalPos="286.40" arrivalSpeed="11.04" duration="141.00" routeLength="1197.89" waitingTime="16.00" waitingCount="2" stopTime="0.00" timeLoss="33.64" rerouteNo="0" devices="tripinfo_41" vType="DEFAULT_VEHTYPE" speedFactor="0.81" vaporized=""/>
    <tripinfo id="8" depart="42.00" departLane="right3D3_0" departPos="5.10" departSpeed="0.00" departDelay="0.00" arrival="327.00" arrivalLane="C0bottom2_0" arrivalPos="286.40" arrivalSpeed="10.08" duration="285.00" routeLength="1795.52" waitingTime="97.00" waitingCount="2" stopTime="0.00" timeLoss="122.19" rerouteNo="0" devices="tripinfo_8" vType="DEFAULT_VEHTYPE" speedFactor="0.80" vaporized=""/>
    <tripinfo id="34" depart="147.00" departLane="left0A0_0" departPos="5.10" departSpeed="0.00" departDelay="0.00" arrival="338.00" arrivalLane="D0right0_0" arrivalPos="286.40" arrivalSpeed="13.34" duration="191.00" routeLength="1495.58" waitingTime="61.00" waitingCount="3" stopTime="0.00" timeLoss="87.43" rerouteNo="0" devices="tripinfo_34" vType="DEFAULT_VEHTYPE" speedFactor="1.05" vaporized=""/>
    <tripinfo id="18" depart="76.00" departLane="top0A3_0" departPos="5.10" departSpeed="0.00" departDelay="0.00" arrival="340.00" arrivalLane="B0bottom1_0" arrivalPos="286.40" arrivalSpeed="13.24" duration="264.00" routeLength="1782.59" waitingTime="97.00" waitingCount="3" stopTime="0.00" timeLoss="130.99" rerouteNo="0" devices="tripinfo_18" vType="DEFAULT_VEHTYPE" speedFactor="0.98" vaporized=""/>
    <tripinfo id="37" depart="171.00" departLane="left1A1_0" departPos="5.10" departSpeed="0.00" departDelay="0.00" arrival="345.00" arrivalLane="B0bottom1_0" arrivalPos="286.40" arrivalSpeed="12.65" duration="174.00" routeLength="1179.77" waitingTime="64.00" waitingCount="2" stopTime="0.00" timeLoss="80.62" rerouteNo="0" devices="tripinfo_37" vType="DEFAULT_VEHTYPE" speedFactor="0.91" vaporized=""/>
    <tripinfo id="20" depart="86.00" departLane="left0A0_0" departPos="5.10" departSpeed="0.00" departDelay="0.00" arrival="349.00" arrivalLane="D2right2_0" arrivalPos="286.40" arrivalSpeed="13.01" duration="263.00" routeLength="2080.05" waitingTime="80.00" waitingCount="5" stopTime="0.00" timeLoss="115.12" rerouteNo="0" devices="tripinfo_20" vType="DEFAULT_VEHTYPE" speedFactor="1.02" vaporized=""/>
    <tripinfo id="21" depart="87.00" departLane="top2C3_0" departPos="5.10" departSpeed="0.00" departDelay="0.00" arrival="349.00" arrivalLane="A0bottom0_0" arrivalPos="286.40" arrivalSpeed="13.14" duration="262.00" routeLength="2082.76" waitingTime="75.00" waitingCount="4" stopTime="0.00" timeLoss="115.97" rerouteNo="0" devices="tripinfo_21" vType="DEFAULT_VEHTYPE" speedFactor="1.04" vaporized=""/>
    <tripinfo id="19" depart="83.00" departLane="top1B3_0" departPos="5.10" departSpeed="0.00" departDelay="0.00" arrival="350.00" arrivalLane="D2right2_1" arrivalPos="286.40" arrivalSpeed="14.64" duration="267.00" routeLength="1495.35" waitingTime="138.00" waitingCount="3" stopTime="0.00" timeLoss="165.00" rerouteNo="0" devices="tripinfo_19" vType="DEFAULT_VEHTYPE" speedFactor="1.07" vaporized=""/>
    <tripinfo id="35" depart="151.00" departLane="top0A3_0" departPos="5.10" departSpeed="0.00" departDelay="0.00" arrival="361.00" arrivalLane="B3top1_0" arrivalPos="286.40" arrivalSpeed="13.04" duration="210.00" routeLength="894.86" waitingTime="124.00" waitingCount="2" stopTime="0.00" timeLoss="141.24" rerouteNo="0" devices="tripinfo_35" vType="DEFAULT_VEHTYPE" speedFactor="0.96" vaporized=""/>
    <tripinfo id="56" depart="264.00" departLane="top0A3_0" departPos="5.10" departSpeed="0.00" departDelay="0.00" arrival="362.00" arrivalLane="B3top1_0" arrivalPos="286.40" arrivalSpeed="13.28" duration="98.00" routeLength="894.86" waitingTime="13.00" waitingCount="2" stopTime="0.00" timeLoss="31.64" rerouteNo="0" devices="tripinfo_56" vType="DEFAULT_VEHTYPE" speedFactor="0.99" vaporized=""/>
    <tripinfo id="57" depart="270.00" departLane="left3A3_0" departPos="5.10" departSpeed="0.00" departDelay="0.00" arrival="362.00" arrivalLane="B3top1_1" arrivalPos="286.40" arrivalSpeed="14.03" duration="92.00" routeLength="897.72" waitingTime="13.00" waitingCount="2" stopTime="0.00" timeLoss="31.17" rerouteNo="0" devices="tripinfo_57" vType="DEFAULT_VEHTYPE" speedFactor="1.07" vaporized=""/>
    <tripinfo id="4" depart="28.00" departLane="left3A3_0" departPos="5.10" departSpeed="0.00" departDelay="0.00" arrival="389.00" arrivalLane="C0bottom2_0" arrivalPos="286.40" arrivalSpeed="13.58" duration="361.00" routeLength="2080.28" waitingTime="168.00" waitingCount="6" stopTime="0.00" timeLoss="213.41" rerouteNo="0" devices="tripinfo_4" vType="DEFAULT_VEHTYPE" speedFactor="1.02" vaporized=""/>
    <tripinfo id="63" depart="305.00" departLane="right2D2_0" departPos="5.10" departSpeed="0.00" departDelay="0.00" arrival="389.00" arrivalLane="D3right3_0" arrivalPos="286.40" arrivalSpeed="12.69" duration="84.00" routeLength="858.56" waitingTime="2.00" waitingCount="2" stopTime="0.00" timeLoss="16.55" rerouteNo="0" devices="tripinfo_63" vType="DEFAULT_VEHTYPE" speedFactor="0.94" vaporized=""/>
    <tripinfo id="58" depart="275.00" departLane="left0A0_0" departPos="5.10" departSpeed="0.00" departDelay="0.00" arrival="396.00" arrivalLane="C0bottom2_0" arrivalPos="286.40" arrivalSpeed="14.04" duration="121.00" routeLength="1177.07" waitingTime="19.00" waitingCount="2" stopTime="0.00" timeLoss="36.56" rerouteNo="0" devices="tripinfo_58" vType="DEFAULT_VEHTYPE" speedFactor="1.01" vaporized=""/>
    <tripinfo id="83" depart="356.00" departLane="top3D3_0" departPos="5.10" departSpeed="0.00" departDelay="0.00" arrival="406.00" arrivalLane="D3right3_0" arrivalPos="286.40" arrivalSpeed="12.80" duration="50.00" routeLength="597.55" waitingTime="0.00" waitingCount="0" stopTime="0.00" timeLoss="5.24" rerouteNo="0" devices="tripinfo_83" vType="DEFAULT_VEHTYPE" speedFactor="0.99" vaporized=""/>
    <tripinfo id="44" depart="195.00" departLane="bottom3D0_0" departPos="5.10" departSpeed="0.00" departDelay="0.00" arrival="421.00" arrivalLane="A0left0_1" arrivalPos="286.40" arrivalSpeed="14.29" duration="226.00" routeLength="1495.35" waitingTime="76.00" waitingCount="2" stopTime="0.00" timeLoss="120.69" rerouteNo="0" devices="tripinfo_44" vType="DEFAULT_VEHTYPE" speedFactor="1.03" vaporized=""/>
    <tripinfo id="49" depart="220.00" departLane="top1B3_0" departPos="5.10" departSpeed="0.00" departDelay="0.00" arrival="421.00" arrivalLane="A2left2_0" arrivalPos="286.40" arrivalSpeed="12.65" duration="201.00" routeLength="1179.77" waitingTime="86.00" waitingCount="3" stopTime="0.00" timeLoss="109.71" rerouteNo="0" devices="tripinfo_49" vType="DEFAULT_VEHTYPE" speedFactor="0.94" vaporized=""/>
    <tripinfo id="29" depart="129.00" departLane="bottom2C0_0" departPos="5.10" departSpeed="0.00" departDelay="0.00" arrival="422.00" arrivalLane="A2left2_1" arrivalPos="286.40" arrivalSpeed="13.41" duration="293.00" routeLength="1795.52" waitingTime="124.00" waitingCount="4" stopTime="0.00" timeLoss="159.74" rerouteNo="0" devices="tripinfo_29" vType="DEFAULT_VEHTYPE" speedFactor="0.98" vaporized=""/>
    <tripinfo id="50" depart="222.00" departLane="top2C3_0" departPos="5.10" departSpeed="0.00" departDelay="0.00" arrival="425.00" arrivalLane="A2left2_0" arrivalPos="286.40" arrivalSpeed="11.61" duration="203.00" routeLength="1479.94" waitingTime="57.00" waitingCount="4" stopTime="0.00" timeLoss="84.57" rerouteNo="0" devices="tripinfo_50" vType="DEFAULT_VEHTYPE" speedFactor="0.90" vaporized=""/>
    <tripinfo id="25" depart="117.00" departLane="bottom3D0_0" departPos="5.10" departSpeed="0.00" departDelay="0.00" arrival="428.00" arrivalLane="A0left0_0" arrivalPos="286.40" arrivalSpeed="8.81" duration="311.00" routeLength="1495.35" waitingTime="135.00" waitingCount="3" stopTime="0.00" timeLoss="161.45" rerouteNo="0" devices="tripinfo_25" vType="DEFAULT_VEHTYPE" speedFactor="0.72" vaporized=""/>
    <tripinfo id="90" depart="375.00" departLane="right0D0_0" departPos="5.10" departSpeed="0.00" departDelay="0.00" arrival="428.00" arrivalLane="D0bottom3_0" arrivalPos="286.40" arrivalSpeed="13.84" duration="53.00" routeLength="597.55" waitingTime="0.00" waitingCount="0" stopTime="0.00" timeLoss="12.18" rerouteNo="0" devices="tripinfo_90" vType="DEFAULT_VEHTYPE" speedFactor="1.07" vaporized=""/>
    <tripinfo id="64" depart="309.00" departLane="bottom3D0_0" departPos="5.10" departSpeed="0.00" departDelay="0.00" arrival="439.00" arrivalLane="B0bottom1_0" arrivalPos="286.40" arrivalSpeed="14.11" duration="130.00" routeLength="1197.66" waitingTime="28.00" waitingCount="2" stopTime="0.00" timeLoss="45.59" rerouteNo="0" devices="tripinfo_64" vType="DEFAULT_VEHTYPE" speedFactor="1.04" vaporized=""/>
    <tripinfo id="54" depart="252.00" departLane="left0A0_0" departPos="5.10" departSpeed="0.00" departDelay="0.00" arrival="440.00" arrivalLane="A3top0_1" arrivalPos="286.40" arrivalSpeed="14.53" duration="188.00" routeLength="1495.35" waitingTime="49.00" waitingCount="4" stopTime="0.00" timeLoss="84.90" rerouteNo="0" devices="tripinfo_54" vType="DEFAULT_VEHTYPE" speedFactor="1.05" vaporized=""/>
    <tripinfo id="43" depart="192.00" departLane="left1A1_0" departPos="5.10" departSpeed="0.00" departDelay="0.00" arrival="443.00" arrivalLane="A3top0_0" arrivalPos="286.40" arrivalSpeed="11.10" duration="251.00" routeLength="1195.18" waitingTime="126.00" waitingCount="3" stopTime="0.00" timeLoss="149.75" rerouteNo="0" devices="tripinfo_43" vType="DEFAULT_VEHTYPE" speedFactor="0.86" vaporized=""/>
    <tripinfo id="46" depart="204.00" departLane="bottom3D0_0" departPos="5.10" departSpeed="0.00" departDelay="0.00" arrival="448.00" arrivalLane="D3right3_0" arrivalPos="286.40" arrivalSpeed="12.22" duration="244.00" routeLength="1477.24" waitingTime="104.00" waitingCount="4" stopTime="0.00" timeLoss="132.03" rerouteNo="0" devices="tripinfo_46" vType="DEFAULT_VEHTYPE" speedFactor="0.96" vaporized=""/>
    <tripinfo id="47" depart="208.00" departLane="bottom2C0_0" departPos="5.10" departSpeed="0.00" departDelay="0.00" arrival="450.00" arrivalLane="D1right1_0" arrivalPos="286.40" arrivalSpeed="12.94" duration="242.00" routeLength="1179.77" waitingTime="130.00" waitingCount="3" stopTime="0.00" timeLoss="152.54" rerouteNo="0" devices="tripinfo_47" vType="DEFAULT_VEHTYPE" speedFactor="0.96" vaporized=""/>
    <tripinfo id="74" depart="326.00" departLane="top0A3_0" departPos="5.10" departSpeed="0.00" departDelay="0.00" arrival="457.00" arrivalLane="B3top1_0" arrivalPos="286.40" arrivalSpeed="14.44" duration="131.00" routeLength="894.86" waitingTime="56.00" waitingCount="2" stopTime="0.00" timeLoss="72.45" rerouteNo="0" devices="tripinfo_74" vType="DEFAULT_VEHTYPE" speedFactor="1.12" vaporized=""/>
    <tripinfo id="55" depart="261.00" departLane="top2C3_0" departPos="5.10" departSpeed="0.00" departDelay="0.00" arrival="469.00" arrivalLane="D1right1_0" arrivalPos="286.40" arrivalSpeed="12.21" duration="208.00" routeLength="1495.35" waitingTime="75.00" waitingCount="2" stopTime="0.00" timeLoss="93.34" rerouteNo="0" devices="tripinfo_55" vType="DEFAULT_VEHTYPE" speedFactor="0.94" vaporized=""/>
    <tripinfo id="94" depart="392.00" departLane="left2A2_0" departPos="5.10" departSpeed="0.00" departDelay="0.00" arrival="471.00" arrivalLane="A3left3_0" arrivalPos="286.40" arrivalSpeed="14.15" duration="79.00" routeLength="894.86" waitingTime="4.00" waitingCount="1" stopTime="0.00" timeLoss="15.77" rerouteNo="0" devices="tripinfo_94" vType="DEFAULT_VEHTYPE" speedFactor="1.04" vaporized=""/>
    <tripinfo id="78" depart="340.00" departLane="left3A3_0" departPos="5.10" departSpeed="0.00" departDelay="0.00" arrival="476.00" arrivalLane="C3top2_0" arrivalPos="286.40" arrivalSpeed="16.88" duration="136.00" routeLength="1197.89" waitingTime="40.00" waitingCount="2" stopTime="0.00" timeLoss="64.01" rerouteNo="0" devices="tripinfo_78" vType="DEFAULT_VEHTYPE" speedFactor="1.22" vaporized=""/>
    <tripinfo id="23" depart="97.00" departLane="left0A0_0" departPos="5.10" departSpeed="0.00" departDelay="0.00" arrival="480.00" arrivalLane="D3right3_0" arrivalPos="286.40" arrivalSpeed="13.22" duration="383.00" routeLength="2380.22" waitingTime="165.00" waitingCount="6" stopTime="0.00" timeLoss="210.87" rerouteNo="0" devices="tripinfo_23" vType="DEFAULT_VEHTYPE" speedFactor="1.01" vaporized=""/>
    <tripinfo id="88" depart="373.00" departLane="bottom1B0_0" departPos="5.10" departSpeed="0.00" departDelay="0.00" arrival="497.00" arrivalLane="A0left0_0" arrivalPos="286.40" arrivalSpeed="13.99" duration="124.00" routeLength="895.01" waitingTime="48.00" waitingCount="2" stopTime="0.00" timeLoss="63.83" rerouteNo="0" devices="tripinfo_88" vType="DEFAULT_VEHTYPE" speedFactor="1.08" vaporized=""/>
    <tripinfo id="69" depart="314.00" departLane="bottom3D0_0" departPos="5.10" departSpeed="0.00" departDelay="0.00" arrival="500.00" arrivalLane="D0bottom3_0" arrivalPos="286.40" arrivalSpeed="12.83" duration="186.00" routeLength="1745.91" waitingTime="21.00" waitingCount="5" stopTime="0.00" timeLoss="54.69" rerouteNo="0" devices="tripinfo_69" vType="DEFAULT_VEHTYPE" speedFactor="0.98" vaporized=""/>
    <tripinfo id="24" depart="102.00" departLane="bottom3D0_0" departPos="5.10" departSpeed="0.00" departDelay="0.00" arrival="506.00" arrivalLane="A3top0_0" arrivalPos="286.40" arrivalSpeed="11.93" duration="404.00" routeLength="2380.22" waitingTime="170.00" waitingCount="5" stopTime="0.00" timeLoss="215.43" rerouteNo="0" devices="tripinfo_24" vType="DEFAULT_VEHTYPE" speedFactor="0.91" vaporized=""/>
    <tripinfo id="97" depart="396.00" departLane="right1D1_0" departPos="5.10" departSpeed="0.00" departDelay="0.00" arrival="516.00" arrivalLane="C3top2_0" arrivalPos="286.40" arrivalSpeed="15.37" duration="120.00" routeLength="1479.94" waitingTime="4.00" waitingCount="2" stopTime="0.00" timeLoss="27.33" rerouteNo="0" devices="tripinfo_97" vType="DEFAULT_VEHTYPE" speedFactor="1.16" vaporized=""/>
    <tripinfo id="53" depart="250.00" departLane="right2D2_0" departPos="5.10" departSpeed="0.00" departDelay="0.00" arrival="518.00" arrivalLane="A0left0_1" arrivalPos="286.40" arrivalSpeed="16.02" duration="268.00" routeLength="2080.05" waitingTime="97.00" waitingCount="4" stopTime="0.00" timeLoss="138.51" rerouteNo="0" devices="tripinfo_53" vType="DEFAULT_VEHTYPE" speedFactor="1.17" vaporized=""/>
    <tripinfo id="81" depart="350.00" departLane="left0A0_0" departPos="5.10" departSpeed="0.00" departDelay="0.00" arrival="520.00" arrivalLane="A0left0_0" arrivalPos="286.40" arrivalSpeed="12.54" duration="170.00" routeLength="1745.91" waitingTime="10.00" waitingCount="4" stopTime="0.00" timeLoss="38.27" rerouteNo="0" devices="tripinfo_81" vType="DEFAULT_VEHTYPE" speedFactor="0.98" vaporized=""/>
    <tripinfo id="109" depart="444.00" departLane="bottom1B0_0" departPos="5.10" departSpeed="0.00" departDelay="0.00" arrival="526.00" arrivalLane="C0bottom2_0" arrivalPos="286.40" arrivalSpeed="12.58" duration="82.00" routeLength="858.56" waitingTime="1.00" waitingCount="1" stopTime="0.00" timeLoss="13.89" rerouteNo="0" devices="tripinfo_109" vType="DEFAULT_VEHTYPE" speedFactor="0.92" vaporized=""/>
    <tripinfo id="62" depart="292.00" departLane="right2D2_0" departPos="5.10" departSpeed="0.00" departDelay="0.00" arrival="527.00" arrivalLane="A1left1_0" arrivalPos="286.40" arrivalSpeed="14.33" duration="235.00" routeLength="1782.59" waitingTime="77.00" waitingCount="5" stopTime="0.00" timeLoss="113.79" rerouteNo="0" devices="tripinfo_62" vType="DEFAULT_VEHTYPE" speedFactor="1.07" vaporized=""/>
    <tripinfo id="45" depart="196.00" departLane="bottom2C0_0" departPos="5.10" departSpeed="0.00" departDelay="0.00" arrival="531.00" arrivalLane="D3right3_0" arrivalPos="286.40" arrivalSpeed="12.43" duration="335.00" routeLength="1780.11" waitingTime="163.00" waitingCount="3" stopTime="0.00" timeLoss="191.53" rerouteNo="0" devices="tripinfo_45" vType="DEFAULT_VEHTYPE" speedFactor="0.90" vaporized=""/>
    <tripinfo id="60" depart="275.00" departLane="top2C3_0" departPos="5.10" departSpeed="0.00" departDelay="0.00" arrival="533.00" arrivalLane="A1left1_0" arrivalPos="286.40" arrivalSpeed="11.68" duration="258.00" routeLength="1780.11" waitingTime="77.00" waitingCount="3" stopTime="0.00" timeLoss="116.55" rerouteNo="0" devices="tripinfo_60" vType="DEFAULT_VEHTYPE" speedFactor="0.91" vaporized=""/>
    <tripinfo id="75" depart="330.00" departLane="top2C3_0" departPos="5.10" departSpeed="0.00" departDelay="0.00" arrival="533.00" arrivalLane="A1left1_1" arrivalPos="286.40" arrivalSpeed="13.71" duration="203.00" routeLength="1780.11" waitingTime="36.00" waitingCount="4" stopTime="0.00" timeLoss="77.46" rerouteNo="0" devices="tripinfo_75" vType="DEFAULT_VEHTYPE" speedFactor="1.03" vaporized=""/>
    <tripinfo id="51" depart="237.00" departLane="top2C3_0" departPos="5.10" departSpeed="0.00" departDelay="0.00" arrival="538.00" arrivalLane="B0bottom1_0" arrivalPos="286.40" arrivalSpeed="14.17" duration="301.00" routeLength="1782.72" waitingTime="143.00" waitingCount="5" stopTime="0.00" timeLoss="179.94" rerouteNo="0" devices="tripinfo_51" vType="DEFAULT_VEHTYPE" speedFactor="1.07" vaporized=""/>
    <tripinfo id="68" depart="314.00" departLane="top2C3_0" departPos="5.10" departSpeed="0.00" departDelay="0.00" arrival="549.00" arrivalLane="A2left2_0" arrivalPos="286.40" arrivalSpeed="13.02" duration="235.00" routeLength="1479.94" waitingTime="93.00" waitingCount="3" stopTime="0.00" timeLoss="125.14" rerouteNo="0" devices="tripinfo_68" vType="DEFAULT_VEHTYPE" speedFactor="0.97" vaporized=""/>