<?xml version="1.0" encoding="UTF-8"?>

<!-- generated on 12/10/21 14:15:53 by Eclipse SUMO sumo Version 1.7.0
<configuration xmlns:xsi="http://www.w3.org/2001/XMLSchema-instance" xsi:noNamespaceSchemaLocation="http://sumo.dlr.de/xsd/sumoConfiguration.xsd">

    <input>
        <net-file value="C:\Users\longs\Desktop\RESCO-main\environments\grid4x4\grid4x4.net.xml"/>
        <route-files value="C:\Users\longs\Desktop\RESCO-main\environments\grid4x4\grid4x4_89.rou.xml"/>
    </input>

    <output>
        <tripinfo-output value="C:\Users\longs\Desktop\RESCO-main\logs\STOCHASTIC-tr1-grid4x4-0-mplight-wait\tripinfo_89.xml"/>
        <tripinfo-output.write-unfinished value="true"/>
    </output>

    <processing>
        <time-to-teleport value="-1"/>
    </processing>

    <report>
        <no-warnings value="true"/>
        <no-step-log value="true"/>
    </report>

    <traci_server>
        <remote-port value="60063"/>
    </traci_server>

    <random_number>
        <random value="true"/>
    </random_number>

</configuration>
-->

<tripinfos xmlns:xsi="http://www.w3.org/2001/XMLSchema-instance" xsi:noNamespaceSchemaLocation="http://sumo.dlr.de/xsd/tripinfo_file.xsd">
    <tripinfo id="9" depart="42.00" departLane="top2C3_0" departPos="5.10" departSpeed="0.00" departDelay="0.00" arrival="119.00" arrivalLane="D3right3_0" arrivalPos="286.40" arrivalSpeed="12.65" duration="77.00" routeLength="895.01" waitingTime="1.00" waitingCount="1" stopTime="0.00" timeLoss="11.61" rerouteNo="0" devices="tripinfo_9" vType="DEFAULT_VEHTYPE" speedFactor="1.00" vaporized=""/>
    <tripinfo id="14" depart="48.00" departLane="left0A0_0" departPos="5.10" departSpeed="0.00" departDelay="0.00" arrival="124.00" arrivalLane="B0bottom1_0" arrivalPos="286.40" arrivalSpeed="13.58" duration="76.00" routeLength="876.90" waitingTime="1.00" waitingCount="1" stopTime="0.00" timeLoss="10.63" rerouteNo="0" devices="tripinfo_14" vType="DEFAULT_VEHTYPE" speedFactor="0.98" vaporized=""/>
    <tripinfo id="18" depart="87.00" departLane="top1B3_0" departPos="5.10" departSpeed="0.00" departDelay="0.00" arrival="167.00" arrivalLane="A3top0_0" arrivalPos="286.40" arrivalSpeed="13.29" duration="80.00" routeLength="858.56" waitingTime="1.00" waitingCount="1" stopTime="0.00" timeLoss="15.51" rerouteNo="0" devices="tripinfo_18" vType="DEFAULT_VEHTYPE" speedFactor="0.98" vaporized=""/>
    <tripinfo id="17" depart="82.00" departLane="top3D3_0" departPos="5.10" departSpeed="0.00" departDelay="0.00" arrival="172.00" arrivalLane="D2right2_0" arrivalPos="286.40" arrivalSpeed="14.08" duration="90.00" routeLength="897.72" waitingTime="14.00" waitingCount="1" stopTime="0.00" timeLoss="25.78" rerouteNo="0" devices="tripinfo_17" vType="DEFAULT_VEHTYPE" speedFactor="1.02" vaporized=""/>
    <tripinfo id="21" depart="121.00" departLane="bottom3D0_0" departPos="5.10" departSpeed="0.00" departDelay="0.00" arrival="172.00" arrivalLane="D0right0_0" arrivalPos="286.40" arrivalSpeed="15.26" duration="51.00" routeLength="576.73" waitingTime="1.00" waitingCount="1" stopTime="0.00" timeLoss="13.12" rerouteNo="0" devices="tripinfo_21" vType="DEFAULT_VEHTYPE" speedFactor="1.13" vaporized=""/>
    <tripinfo id="7" depart="35.00" departLane="right2D2_0" departPos="5.10" departSpeed="0.00" departDelay="0.00" arrival="191.00" arrivalLane="C3top2_0" arrivalPos="286.40" arrivalSpeed="11.54" duration="156.00" routeLength="1179.77" waitingTime="38.00" waitingCount="2" stopTime="0.00" timeLoss="61.55" rerouteNo="0" devices="tripinfo_7" vType="DEFAULT_VEHTYPE" speedFactor="0.91" vaporized=""/>
    <tripinfo id="2" depart="6.00" departLane="left1A1_0" departPos="5.10" departSpeed="0.00" departDelay="0.00" arrival="210.00" arrivalLane="A3top0_0" arrivalPos="286.40" arrivalSpeed="11.85" duration="204.00" routeLength="1195.18" waitingTime="90.00" waitingCount="3" stopTime="0.00" timeLoss="111.60" rerouteNo="0" devices="tripinfo_2" vType="DEFAULT_VEHTYPE" speedFactor="0.94" vaporized=""/>
    <tripinfo id="0" depart="1.00" departLane="bottom2C0_0" departPos="5.10" departSpeed="0.00" departDelay="0.00" arrival="229.00" arrivalLane="D2right2_0" arrivalPos="286.40" arrivalSpeed="12.51" duration="228.00" routeLength="1479.94" waitingTime="96.00" waitingCount="3" stopTime="0.00" timeLoss="118.88" rerouteNo="0" devices="tripinfo_0" vType="DEFAULT_VEHTYPE" speedFactor="0.98" vaporized=""/>
    <tripinfo id="10" depart="46.00" departLane="left1A1_0" departPos="5.10" departSpeed="0.00" departDelay="0.00" arrival="230.00" arrivalLane="C3top2_0" arrivalPos="286.40" arrivalSpeed="12.52" duration="184.00" routeLength="1795.52" waitingTime="21.00" waitingCount="3" stopTime="0.00" timeLoss="52.43" rerouteNo="0" devices="tripinfo_10" vType="DEFAULT_VEHTYPE" speedFactor="0.99" vaporized=""/>
    <tripinfo id="15" depart="68.00" departLane="top2C3_0" departPos="5.10" departSpeed="0.00" departDelay="0.00" arrival="230.00" arrivalLane="D2right2_1" arrivalPos="286.40" arrivalSpeed="14.48" duration="162.00" routeLength="1195.18" waitingTime="60.00" waitingCount="3" stopTime="0.00" timeLoss="83.77" rerouteNo="0" devices="tripinfo_15" vType="DEFAULT_VEHTYPE" speedFactor="1.12" vaporized=""/>
    <tripinfo id="1" depart="5.00" departLane="top2C3_0" departPos="5.10" departSpeed="0.00" departDelay="0.00" arrival="256.00" arrivalLane="B0bottom1_0" arrivalPos="286.40" arrivalSpeed="15.78" duration="251.00" routeLength="1782.72" waitingTime="114.00" waitingCount="3" stopTime="0.00" timeLoss="141.47" rerouteNo="0" devices="tripinfo_1" vType="DEFAULT_VEHTYPE" speedFactor="1.19" vaporized=""/>
    <tripinfo id="6" depart="29.00" departLane="top1B3_0" departPos="5.10" departSpeed="0.00" departDelay="0.00" arrival="267.00" arrivalLane="C0bottom2_0" arrivalPos="286.40" arrivalSpeed="15.37" duration="238.00" routeLength="1782.59" waitingTime="86.00" waitingCount="5" stopTime="0.00" timeLoss="124.56" rerouteNo="0" devices="tripinfo_6" vType="DEFAULT_VEHTYPE" speedFactor="1.15" vaporized=""/>
    <tripinfo id="33" depart="192.00" departLane="top3D3_0" departPos="5.10" departSpeed="0.00" departDelay="0.00" arrival="268.00" arrivalLane="C3top2_0" arrivalPos="286.40" arrivalSpeed="12.87" duration="76.00" routeLength="858.56" waitingTime="0.00" waitingCount="0" stopTime="0.00" timeLoss="9.88" rerouteNo="0" devices="tripinfo_33" vType="DEFAULT_VEHTYPE" speedFactor="0.97" vaporized=""/>
    <tripinfo id="16" depart="68.00" departLane="right2D2_0" departPos="5.10" departSpeed="0.00" departDelay="0.00" arrival="278.00" arrivalLane="D0bottom3_0" arrivalPos="286.40" arrivalSpeed="14.09" duration="210.00" routeLength="1195.18" waitingTime="103.00" waitingCount="3" stopTime="0.00" timeLoss="126.29" rerouteNo="0" devices="tripinfo_16" vType="DEFAULT_VEHTYPE" speedFactor="1.03" vaporized=""/>
    <tripinfo id="11" depart="47.00" departLane="top0A3_0" departPos="5.10" departSpeed="0.00" departDelay="0.00" arrival="280.00" arrivalLane="D0bottom3_0" arrivalPos="286.40" arrivalSpeed="13.63" duration="233.00" routeLength="2380.22" waitingTime="36.00" waitingCount="2" stopTime="0.00" timeLoss="66.45" rerouteNo="0" devices="tripinfo_11" vType="DEFAULT_VEHTYPE" speedFactor="1.04" vaporized=""/>
    <tripinfo id="31" depart="181.00" departLane="left2A2_0" departPos="5.10" departSpeed="0.00" departDelay="1.00" arrival="287.00" arrivalLane="A0left0_0" arrivalPos="286.40" arrivalSpeed="13.14" duration="106.00" routeLength="1161.43" waitingTime="2.00" waitingCount="2" stopTime="0.00" timeLoss="18.41" rerouteNo="0" devices="tripinfo_31" vType="DEFAULT_VEHTYPE" speedFactor="0.97" vaporized=""/>
    <tripinfo id="36" depart="215.00" departLane="top1B3_0" departPos="5.10" departSpeed="0.00" departDelay="0.00" arrival="291.00" arrivalLane="A3top0_0" arrivalPos="286.40" arrivalSpeed="14.30" duration="76.00" routeLength="858.56" waitingTime="1.00" waitingCount="1" stopTime="0.00" timeLoss="16.21" rerouteNo="0" devices="tripinfo_36" vType="DEFAULT_VEHTYPE" speedFactor="1.05" vaporized=""/>
    <tripinfo id="8" depart="39.00" departLane="bottom2C0_0" departPos="5.10" departSpeed="0.00" departDelay="0.00" arrival="327.00" arrivalLane="D1right1_0" arrivalPos="286.40" arrivalSpeed="14.26" duration="288.00" routeLength="1179.77" waitingTime="183.00" waitingCount="3" stopTime="0.00" timeLoss="208.57" rerouteNo="0" devices="tripinfo_8" vType="DEFAULT_VEHTYPE" speedFactor="1.08" vaporized=""/>
    <tripinfo id="3" depart="7.00" departLane="bottom2C0_0" departPos="5.10" departSpeed="0.00" departDelay="0.00" arrival="331.00" arrivalLane="D3top3_0" arrivalPos="286.40" arrivalSpeed="11.89" duration="324.00" routeLength="1782.72" waitingTime="153.00" waitingCount="4" stopTime="0.00" timeLoss="182.23" rerouteNo="0" devices="tripinfo_3" vType="DEFAULT_VEHTYPE" speedFactor="0.92" vaporized=""/>
    <tripinfo id="4" depart="17.00" departLane="bottom3D0_0" departPos="5.10" departSpeed="0.00" departDelay="0.00" arrival="331.00" arrivalLane="D3top3_1" arrivalPos="286.40" arrivalSpeed="13.75" duration="314.00" routeLength="1495.58" waitingTime="177.00" waitingCount="3" stopTime="0.00" timeLoss="210.55" rerouteNo="0" devices="tripinfo_4" vType="DEFAULT_VEHTYPE" speedFactor="1.05" vaporized=""/>
    <tripinfo id="24" depart="145.00" departLane="right0D0_0" departPos="5.10" departSpeed="0.00" departDelay="0.00" arrival="337.00" arrivalLane="D0right0_0" arrivalPos="286.40" arrivalSpeed="14.03" duration="192.00" routeLength="1748.75" waitingTime="41.00" waitingCount="5" stopTime="0.00" timeLoss="74.69" rerouteNo="0" devices="tripinfo_24" vType="DEFAULT_VEHTYPE" speedFactor="1.09" vaporized=""/>
    <tripinfo id="5" depart="17.00" departLane="right2D2_0" departPos="5.10" departSpeed="0.00" departDelay="0.00" arrival="341.00" arrivalLane="A1left1_0" arrivalPos="286.40" arrivalSpeed="12.70" duration="324.00" routeLength="1782.59" waitingTime="153.00" waitingCount="3" stopTime="0.00" timeLoss="184.14" rerouteNo="0" devices="tripinfo_5" vType="DEFAULT_VEHTYPE" speedFactor="0.93" vaporized=""/>
    <tripinfo id="25" depart="153.00" departLane="top1B3_0" departPos="5.10" departSpeed="0.00" departDelay="0.00" arrival="352.00" arrivalLane="D2right2_0" arrivalPos="286.40" arrivalSpeed="11.55" duration="199.00" routeLength="1495.35" waitingTime="59.00" waitingCount="2" stopTime="0.00" timeLoss="78.27" rerouteNo="0" devices="tripinfo_25" vType="DEFAULT_VEHTYPE" speedFactor="0.90" vaporized=""/>
    <tripinfo id="51" depart="300.00" departLane="right1D1_0" departPos="5.10" departSpeed="0.00" departDelay="0.00" arrival="375.00" arrivalLane="D0right0_0" arrivalPos="286.40" arrivalSpeed="12.16" duration="75.00" routeLength="894.86" waitingTime="0.00" waitingCount="0" stopTime="0.00" timeLoss="7.17" rerouteNo="0" devices="tripinfo_51" vType="DEFAULT_VEHTYPE" speedFactor="0.97" vaporized=""/>
    <tripinfo id="39" depart="236.00" departLane="bottom1B0_0" departPos="5.10" departSpeed="0.00" departDelay="0.00" arrival="377.00" arrivalLane="D0right0_0" arrivalPos="286.40" arrivalSpeed="15.08" duration="141.00" routeLength="1179.77" waitingTime="42.00" waitingCount="2" stopTime="0.00" timeLoss="62.84" rerouteNo="0" devices="tripinfo_39" vType="DEFAULT_VEHTYPE" speedFactor="1.09" vaporized=""/>
    <tripinfo id="27" depart="165.00" departLane="bottom2C0_0" departPos="5.10" departSpeed="0.00" departDelay="0.00" arrival="379.00" arrivalLane="A0left0_0" arrivalPos="286.40" arrivalSpeed="13.70" duration="214.00" routeLength="1195.18" waitingTime="109.00" waitingCount="2" stopTime="0.00" timeLoss="126.61" rerouteNo="0" devices="tripinfo_27" vType="DEFAULT_VEHTYPE" speedFactor="1.00" vaporized=""/>
    <tripinfo id="53" depart="307.00" departLane="left0A0_0" departPos="5.10" departSpeed="0.00" departDelay="0.00" arrival="395.00" arrivalLane="B0bottom1_0" arrivalPos="286.40" arrivalSpeed="14.27" duration="88.00" routeLength="876.90" waitingTime="10.00" waitingCount="2" stopTime="0.00" timeLoss="29.69" rerouteNo="0" devices="tripinfo_53" vType="DEFAULT_VEHTYPE" speedFactor="1.09" vaporized=""/>
    <tripinfo id="54" depart="308.00" departLane="bottom1B0_0" departPos="5.10" departSpeed="0.00" departDelay="0.00" arrival="397.00" arrivalLane="C0bottom2_0" arrivalPos="286.40" arrivalSpeed="12.04" duration="89.00" routeLength="858.56" waitingTime="1.00" waitingCount="1" stopTime="0.00" timeLoss="16.52" rerouteNo="0" devices="tripinfo_54" vType="DEFAULT_VEHTYPE" speedFactor="0.87" vaporized=""/>
    <tripinfo id="23" depart="130.00" departLane="left3A3_0" departPos="5.10" departSpeed="0.00" departDelay="0.00" arrival="399.00" arrivalLane="D3top3_0" arrivalPos="286.40" arrivalSpeed="13.36" duration="269.00" routeLength="1498.06" waitingTime="134.00" waitingCount="3" stopTime="0.00" timeLoss="160.46" rerouteNo="0" devices="tripinfo_23" vType="DEFAULT_VEHTYPE" speedFactor="1.00" vaporized=""/>
    <tripinfo id="35" depart="210.00" departLane="left3A3_0" departPos="5.10" departSpeed="0.00" departDelay="0.00" arrival="399.00" arrivalLane="C3top2_0" arrivalPos="286.40" arrivalSpeed="13.07" duration="189.00" routeLength="1197.89" waitingTime="77.00" waitingCount="3" stopTime="0.00" timeLoss="102.58" rerouteNo="0" devices="tripinfo_35" vType="DEFAULT_VEHTYPE" speedFactor="1.01" vaporized=""/>
    <tripinfo id="38" depart="226.00" departLane="left0A0_0" departPos="5.10" departSpeed="0.00" departDelay="0.00" arrival="399.00" arrivalLane="D0bottom3_0" arrivalPos="286.40" arrivalSpeed="11.92" duration="173.00" routeLength="1477.24" waitingTime="35.00" waitingCount="2" stopTime="0.00" timeLoss="59.91" rerouteNo="0" devices="tripinfo_38" vType="DEFAULT_VEHTYPE" speedFactor="0.94" vaporized=""/>
    <tripinfo id="41" depart="245.00" departLane="left1A1_0" departPos="5.10" departSpeed="0.00" departDelay="0.00" arrival="399.00" arrivalLane="D0right0_0" arrivalPos="286.40" arrivalSpeed="12.91" duration="154.00" routeLength="1782.72" waitingTime="1.00" waitingCount="1" stopTime="0.00" timeLoss="17.62" rerouteNo="0" devices="tripinfo_41" vType="DEFAULT_VEHTYPE" speedFactor="0.96" vaporized=""/>
    <tripinfo id="37" depart="218.00" departLane="top2C3_0" departPos="5.10" departSpeed="0.00" departDelay="0.00" arrival="401.00" arrivalLane="D3top3_0" arrivalPos="286.40" arrivalSpeed="12.88" duration="183.00" routeLength="894.86" waitingTime="100.00" waitingCount="2" stopTime="0.00" timeLoss="117.70" rerouteNo="0" devices="tripinfo_37" vType="DEFAULT_VEHTYPE" speedFactor="1.01" vaporized=""/>
    <tripinfo id="32" depart="185.00" departLane="top3D3_0" departPos="5.10" departSpeed="0.00" departDelay="0.00" arrival="427.00" arrivalLane="B0bottom1_0" arrivalPos="286.40" arrivalSpeed="14.46" duration="242.00" routeLength="2082.76" waitingTime="61.00" waitingCount="5" stopTime="0.00" timeLoss="102.63" rerouteNo="0" devices="tripinfo_32" vType="DEFAULT_VEHTYPE" speedFactor="1.08" vaporized=""/>
    <tripinfo id="56" depart="325.00" departLane="top2C3_0" departPos="5.10" departSpeed="0.00" departDelay="0.00" arrival="428.00" arrivalLane="D2right2_0" arrivalPos="286.40" arrivalSpeed="13.36" duration="103.00" routeLength="1195.18" waitingTime="4.00" waitingCount="2" stopTime="0.00" timeLoss="20.08" rerouteNo="0" devices="tripinfo_56" vType="DEFAULT_VEHTYPE" speedFactor="1.05" vaporized=""/>
    <tripinfo id="64" depart="348.00" departLane="top1B3_0" departPos="5.10" departSpeed="0.00" departDelay="0.00" arrival="428.00" arrivalLane="A3left3_0" arrivalPos="286.40" arrivalSpeed="13.29" duration="80.00" routeLength="879.60" waitingTime="1.00" waitingCount="1" stopTime="0.00" timeLoss="13.26" rerouteNo="0" devices="tripinfo_64" vType="DEFAULT_VEHTYPE" speedFactor="0.96" vaporized=""/>
    <tripinfo id="13" depart="47.00" departLane="right1D1_0" departPos="5.10" departSpeed="0.00" departDelay="0.00" arrival="432.00" arrivalLane="A2left2_0" arrivalPos="286.40" arrivalSpeed="11.42" duration="385.00" routeLength="1782.72" waitingTime="209.00" waitingCount="3" stopTime="0.00" timeLoss="236.11" rerouteNo="0" devices="tripinfo_13" vType="DEFAULT_VEHTYPE" speedFactor="0.87" vaporized=""/>
    <tripinfo id="28" depart="171.00" departLane="bottom2C0_0" departPos="5.10" departSpeed="0.00" departDelay="0.00" arrival="439.00" arrivalLane="D3top3_0" arrivalPos="286.40" arrivalSpeed="12.96" duration="268.00" routeLength="1782.72" waitingTime="110.00" waitingCount="4" stopTime="0.00" timeLoss="140.39" rerouteNo="0" devices="tripinfo_28" vType="DEFAULT_VEHTYPE" speedFactor="1.02" vaporized=""/>
    <tripinfo id="48" depart="278.00" departLane="left0A0_0" departPos="5.10" departSpeed="0.00" departDelay="0.00" arrival="441.00" arrivalLane="A0left0_1" arrivalPos="286.40" arrivalSpeed="15.12" duration="163.00" routeLength="1745.91" waitingTime="22.00" waitingCount="3" stopTime="0.00" timeLoss="48.37" rerouteNo="0" devices="tripinfo_48" vType="DEFAULT_VEHTYPE" speedFactor="1.12" vaporized=""/>
    <tripinfo id="12" depart="47.00" departLane="right3D3_0" departPos="5.10" departSpeed="0.00" departDelay="0.00" arrival="444.00" arrivalLane="A0left0_0" arrivalPos="286.40" arrivalSpeed="10.60" duration="397.00" routeLength="2380.22" waitingTime="149.00" waitingCount="5" stopTime="0.00" timeLoss="187.56" rerouteNo="0" devices="tripinfo_12" vType="DEFAULT_VEHTYPE" speedFactor="0.83" vaporized=""/>
    <tripinfo id="44" depart="250.00" departLane="bottom0A0_0" departPos="5.10" departSpeed="0.00" departDelay="0.00" arrival="458.00" arrivalLane="A2left2_0" arrivalPos="286.40" arrivalSpeed="14.21" duration="208.00" routeLength="1197.89" waitingTime="102.00" waitingCount="3" stopTime="0.00" timeLoss="125.15" rerouteNo="0" devices="tripinfo_44" vType="DEFAULT_VEHTYPE" speedFactor="1.05" vaporized=""/>
    <tripinfo id="45" depart="257.00" departLane="bottom3D0_0" departPos="5.10" departSpeed="0.00" departDelay="0.00" arrival="460.00" arrivalLane="C3top2_1" arrivalPos="286.40" arrivalSpeed="13.03" duration="203.00" routeLength="1782.59" waitingTime="36.00" waitingCount="4" stopTime="0.00" timeLoss="77.17" rerouteNo="0" devices="tripinfo_45" vType="DEFAULT_VEHTYPE" speedFactor="1.03" vaporized=""/>
    <tripinfo id="22" depart="123.00" departLane="left1A1_0" departPos="5.10" departSpeed="0.00" departDelay="0.00" arrival="461.00" arrivalLane="C3top2_0" arrivalPos="286.40" arrivalSpeed="11.64" duration="338.00" routeLength="1795.52" waitingTime="161.00" waitingCount="3" stopTime="0.00" timeLoss="191.13" rerouteNo="0" devices="tripinfo_22" vType="DEFAULT_VEHTYPE" speedFactor="0.89" vaporized=""/>
    <tripinfo id="62" depart="338.00" departLane="right2D2_0" departPos="5.10" departSpeed="0.00" departDelay="0.00" arrival="465.00" arrivalLane="C3top2_0" arrivalPos="286.40" arrivalSpeed="12.04" duration="127.00" routeLength="1179.77" waitingTime="10.00" waitingCount="2" stopTime="0.00" timeLoss="28.98" rerouteNo="0" devices="tripinfo_62" vType="DEFAULT_VEHTYPE" speedFactor="0.88" vaporized=""/>
    <tripinfo id="58" depart="330.00" departLane="left0A0_0" departPos="5.10" departSpeed="0.00" departDelay="0.00" arrival="472.00" arrivalLane="C0bottom2_0" arrivalPos="286.40" arrivalSpeed="15.34" duration="142.00" routeLength="1177.07" waitingTime="45.00" waitingCount="3" stopTime="0.00" timeLoss="68.05" rerouteNo="0" devices="tripinfo_58" vType="DEFAULT_VEHTYPE" speedFactor="1.17" vaporized=""/>
    <tripinfo id="75" depart="384.00" departLane="left3A3_0" departPos="5.10" departSpeed="0.00" departDelay="0.00" arrival="476.00" arrivalLane="A2left2_0" arrivalPos="286.40" arrivalSpeed="10.67" duration="92.00" routeLength="858.56" waitingTime="2.00" waitingCount="2" stopTime="0.00" timeLoss="18.24" rerouteNo="0" devices="tripinfo_75" vType="DEFAULT_VEHTYPE" speedFactor="0.85" vaporized=""/>
    <tripinfo id="80" depart="400.00" departLane="left3A3_0" departPos="5.10" departSpeed="0.00" departDelay="0.00" arrival="478.00" arrivalLane="A2left2_0" arrivalPos="286.40" arrivalSpeed="14.41" duration="78.00" routeLength="858.56" waitingTime="2.00" waitingCount="2" stopTime="0.00" timeLoss="20.23" rerouteNo="0" devices="tripinfo_80" vType="DEFAULT_VEHTYPE" speedFactor="1.09" vaporized=""/>
    <tripinfo id="60" depart="335.00" departLane="top2C3_0" departPos="5.10" departSpeed="0.00" departDelay="0.00" arrival="491.00" arrivalLane="A3top0_0" arrivalPos="286.40" arrivalSpeed="13.54" duration="156.00" routeLength="1161.43" waitingTime="57.00" waitingCount="1" stopTime="0.00" timeLoss="72.59" rerouteNo="0" devices="tripinfo_60" vType="DEFAULT_VEHTYPE" speedFactor="1.02" vaporized=""/>
    <tripinfo id="63" depart="341.00" departLane="left2A2_0" departPos="5.10" departSpeed="0.00" departDelay="0.00" arrival="503.00" arrivalLane="D3top3_0" arrivalPos="286.40" arrivalSpeed="12.66" duration="162.00" routeLength="1795.52" waitingTime="6.00" waitingCount="1" stopTime="0.00" timeLoss="27.43" rerouteNo="0" devices="tripinfo_63" vType="DEFAULT_VEHTYPE" speedFactor="0.97" vaporized=""/>
    <tripinfo id="59" depart="335.00" departLane="bottom0A0_0" departPos="5.10" departSpeed="0.00" departDelay="0.00" arrival="504.00" arrivalLane="A0bottom0_0" arrivalPos="286.40" arrivalSpeed="12.29" duration="169.00" routeLength="1748.75" waitingTime="3.00" waitingCount="3" stopTime="0.00" timeLoss="30.79" rerouteNo="0" devices="tripinfo_59" vType="DEFAULT_VEHTYPE" speedFactor="0.93" vaporized=""/>
    <tripinfo id="29" depart="172.00" departLane="right3D3_0" departPos="5.10" departSpeed="0.00" departDelay="0.00" arrival="510.00" arrivalLane="A1left1_0" arrivalPos="286.40" arrivalSpeed="12.83" duration="338.00" routeLength="2080.05" waitingTime="133.00" waitingCount="5" stopTime="0.00" timeLoss="181.65" rerouteNo="0" devices="tripinfo_29" vType="DEFAULT_VEHTYPE" speedFactor="0.97" vaporized=""/>
    <tripinfo id="61" depart="337.00" departLane="left0A0_0" departPos="5.10" departSpeed="0.00" departDelay="0.00" arrival="512.00" arrivalLane="A2left2_0" arrivalPos="286.40" arrivalSpeed="11.54" duration="175.00" routeLength="1197.66" waitingTime="51.00" waitingCount="2" stopTime="0.00" timeLoss="72.78" rerouteNo="0" devices="tripinfo_61" vType="DEFAULT_VEHTYPE" speedFactor="0.86" vaporized=""/>
    <tripinfo id="30" depart="178.00" departLane="left2A2_0" departPos="5.10" departSpeed="0.00" departDelay="0.00" arrival="513.00" arrivalLane="D0right0_0" arrivalPos="286.40" arrivalSpeed="10.99" duration="335.00" routeLength="2082.76" waitingTime="122.00" waitingCount="3" stopTime="0.00" timeLoss="154.74" rerouteNo="0" devices="tripinfo_30" vType="DEFAULT_VEHTYPE" speedFactor="0.84" vaporized=""/>
    <tripinfo id="46" depart="260.00" departLane="right2D2_0" departPos="5.10" departSpeed="0.00" departDelay="0.00" arrival="514.00" arrivalLane="A1left1_0" arrivalPos="286.40" arrivalSpeed="12.01" duration="254.00" routeLength="1782.59" waitingTime="78.00" waitingCount="4" stopTime="0.00" timeLoss="111.65" rerouteNo="0" devices="tripinfo_46" vType="DEFAULT_VEHTYPE" speedFactor="0.91" vaporized=""/>
    <tripinfo id="68" depart="368.00" departLane="left3A3_0" departPos="5.10" departSpeed="0.00" departDelay="0.00" arrival="518.00" arrivalLane="D2right2_1" arrivalPos="286.40" arrivalSpeed="13.98" duration="150.00" routeLength="1782.72" waitingTime="5.00" waitingCount="1" stopTime="0.00" timeLoss="28.03" rerouteNo="0" devices="tripinfo_68" vType="DEFAULT_VEHTYPE" speedFactor="1.06" vaporized=""/>
    <tripinfo id="52" depart="303.00" departLane="bottom0A0_0" departPos="5.10" departSpeed="0.00" departDelay="0.00" arrival="519.00" arrivalLane="D2right2_0" arrivalPos="286.40" arrivalSpeed="12.27" duration="216.00" routeLength="2080.28" waitingTime="30.00" waitingCount="1" stopTime="0.00" timeLoss="54.06" rerouteNo="0" devices="tripinfo_52" vType="DEFAULT_VEHTYPE" speedFactor="0.93" vaporized=""/>
    <tripinfo id="72" depart="378.00" departLane="top0A3_0" departPos="5.10" departSpeed="0.00" departDelay="0.00" arrival="522.00" arrivalLane="D3top3_0" arrivalPos="286.40" arrivalSpeed="14.05" duration="144.00" routeLength="1497.83" waitingTime="16.00" waitingCount="3" stopTime="0.00" timeLoss="40.30" rerouteNo="0" devices="tripinfo_72" vType="DEFAULT_VEHTYPE" speedFactor="1.05" vaporized=""/>
    <tripinfo id="49" depart="292.00" departLane="left1A1_0" departPos="5.10" departSpeed="0.00" departDelay="0.00" arrival="523.00" arrivalLane="B3top1_0" arrivalPos="286.40" arrivalSpeed="11.16" duration="231.00" routeLength="1495.35" waitingTime="76.00" waitingCount="3" stopTime="0.00" timeLoss="105.09" rerouteNo="0" devices="tripinfo_49" vType="DEFAULT_VEHTYPE" speedFactor="0.86" vaporized=""/>
    <tripinfo id="74" depart="383.00" departLane="right0D0_0" departPos="5.10" departSpeed="0.00" departDelay="0.00" arrival="525.00" arrivalLane="D0right0_0" arrivalPos="286.40" arrivalSpeed="12.81" duration="142.00" routeLength="1748.75" waitingTime="0.00" waitingCount="0" stopTime="0.00" timeLoss="14.53" rerouteNo="0" devices="tripinfo_74" vType="DEFAULT_VEHTYPE" speedFactor="1.01" vaporized=""/>
    <tripinfo id="78" depart="397.00" departLane="bottom3D0_0" departPos="5.10" departSpeed="0.00" departDelay="0.00" arrival="539.00" arrivalLane="B0bottom1_0" arrivalPos="286.40" arrivalSpeed="13.17" duration="142.00" routeLength="1197.66" waitingTime="41.00" waitingCount="2" stopTime="0.00" timeLoss="56.92" rerouteNo="0" devices="tripinfo_78" vType="DEFAULT_VEHTYPE" speedFactor="1.03" vaporized=""/>
    <tripinfo id="73" depart="379.00" departLane="right0D0_0" departPos="5.10" departSpeed="0.00" departDelay="0.00" arrival="541.00" arrivalLane="A0bottom0_0" arrivalPos="286.40" arrivalSpeed="13.21" duration="162.00" routeLength="1498.06" waitingTime="31.00" waitingCount="2" stopTime="0.00" timeLoss="49.05" rerouteNo="0" devices="tripinfo_73" vType="DEFAULT_VEHTYPE" speedFactor="0.97" vaporized=""/>
    <tripinfo id="26" depart="159.00" departLane="left2A2_0" departPos="5.10" departSpeed="0.00" departDelay="0.00" arrival="551.00" arrivalLane="D1right1_0" arrivalPos="286.40" arrivalSpeed="12.18" duration="392.00" routeLength="1782.72" waitingTime="218.00" waitingCount="5" stopTime="0.00" timeLoss="252.02" rerouteNo="0" devices="tripinfo_26" vType="DEFAULT_VEHTYPE" speedFactor="0.93" vaporized=""/>
    <tripinfo id="86" depart="445.00" departLane="bottom0A0_0" departPos="5.10" departSpeed="0.00" departDelay="0.00" arrival="556.00" arrivalLane="A2left2_0" arrivalPos="286.40" arrivalSpeed="16.65" duration="111.00" routeLength="1197.89" waitingTime="16.00" waitingCount="2" stopTime="0.00" timeLoss="37.92" rerouteNo="0" devices="tripinfo_86" vType="DEFAULT_VEHTYPE" speedFactor="1.20" vaporized=""/>
    <tripinfo id="57" depart="329.00" departLane="top3D3_0" departPos="5.10" departSpeed="0.00" departDelay="0.00" arrival="558.00" arrivalLane="A0left0_0" arrivalPos="286.40" arrivalSpeed="14.51" duration="229.00" routeLength="2380.45" waitingTime="42.00" waitingCount="3" stopTime="0.00" timeLoss="71.42" rerouteNo="0" devices="tripinfo_57" vType="DEFAULT_VEHTYPE" speedFactor="1.09" vaporized=""/>
    <tripinfo id="42" depart="248.00" departLane="top1B3_0" departPos="5.10" departSpeed="0.00" departDelay="0.00" arrival="559.00" arrivalLane="D0right0_1" arrivalPos="286.40" arrivalSpeed="14.23" duration="311.00" routeLength="2095.69" waitingTime="133.00" waitingCount="4" stopTime="0.00" timeLoss="171.84" rerouteNo="0" devices="tripinfo_42" vType="DEFAULT_VEHTYPE" speedFactor="1.09" vaporized=""/>
    <tripinfo id="34" depart="209.00" departLane="top2C3_0" departPos="5.10" departSpeed="0.00" departDelay="0.00" arrival="561.00" arrivalLane="D0right0_0" arrivalPos="286.40" arrivalSpeed="11.39" duration="352.00" routeLength="1795.52" waitingTime="176.00" waitingCount="3" stopTime="0.00" timeLoss="208.71" rerouteNo="0" devices="tripinfo_34" vType="DEFAULT_VEHTYPE" speedFactor="0.91" vaporized=""/>
    <tripinfo id="66" depart="355.00" departLane="left2A2_0" departPos="5.10" departSpeed="0.00" departDelay="0.00" arrival="569.00" arrivalLane="A3left3_0" arrivalPos="286.40" arrivalSpeed="13.76" duration="214.00" routeLength="894.86" waitingTime="134.00" waitingCount="2" stopTime="0.00" timeLoss="149.69" rerouteNo="0" devices="tripinfo_66" vType="DEFAULT_VEHTYPE" speedFactor="1.02" vaporized=""/>
    <tripinfo id="40" depart="242.00" departLane="top2C3_0" departPos="5.10" departSpeed="0.00" departDelay="0.00" arrival="577.00" arrivalLane="A1left1_0" arrivalPos="286.40" arrivalSpeed="15.36" duration="335.00" routeLength="1780.11" waitingTime="174.00" waitingCount="5" stopTime="0.00" timeLoss="219.73" rerouteNo="0" devices="tripinfo_40" vType="DEFAULT_VEHTYPE" speedFactor="1.13" vaporized=""/>
    <tripinfo id="20" depart="98.00" departLane="top3D3_0" departPos="5.10" departSpeed="0.00" departDelay="0.00" arrival="578.00" arrivalLane="C0bottom2_0" arrivalPos="286.40" arrivalSpeed="9.39" duration="480.00" routeLength="1782.72" waitingTime="271.00" waitingCount="3" stopTime="0.00" timeLoss="298.65" rerouteNo="0" devices="tripinfo_20" vType="DEFAULT_VEHTYPE" speedFactor="0.72" vaporized=""/>
    <tripinfo id="69" depart="371.00" departLane="left3A3_0" departPos="5.10" departSpeed="0.00" departDelay="1.00" arrival="578.00" arrivalLane="D1right1_0" arrivalPos="286.40" arrivalSpeed="14.59" duration="207.00" routeLength="2082.76" waitingTime="37.00" waitingCount="3" stopTime="0.00" timeLoss="64.00" rerouteNo="0" devices="tripinfo_69" vType="DEFAULT_VEHTYPE" speedFactor="1.06" vaporized=""/>
    <tripinfo id="84" depart="442.00" departLane="bottom1B0_0" departPos="5.10" departSpeed="0.00" departDelay="0.00" arrival="586.00" arrivalLane="A1left1_0" arrivalPos="286.40" arrivalSpeed="12.68" duration="144.00" routeLength="1195.18" waitingTime="33.00" waitingCount="2" stopTime="0.00" timeLoss="49.23" rerouteNo="0" devices="tripinfo_84" vType="DEFAULT_VEHTYPE" speedFactor="0.92" vaporized=""/>