<?xml version="1.0" encoding="UTF-8"?>

<!-- generated on 12/10/21 13:52:54 by Eclipse SUMO sumo Version 1.7.0
<configuration xmlns:xsi="http://www.w3.org/2001/XMLSchema-instance" xsi:noNamespaceSchemaLocation="http://sumo.dlr.de/xsd/sumoConfiguration.xsd">

    <input>
        <net-file value="C:\Users\longs\Desktop\RESCO-main\environments\grid4x4\grid4x4.net.xml"/>
        <route-files value="C:\Users\longs\Desktop\RESCO-main\environments\grid4x4\grid4x4_17.rou.xml"/>
    </input>

    <output>
        <tripinfo-output value="C:\Users\longs\Desktop\RESCO-main\logs\STOCHASTIC-tr1-grid4x4-0-mplight-wait\tripinfo_17.xml"/>
        <tripinfo-output.write-unfinished value="true"/>
    </output>

    <processing>
        <time-to-teleport value="-1"/>
    </processing>

    <report>
        <no-warnings value="true"/>
        <no-step-log value="true"/>
    </report>

    <traci_server>
        <remote-port value="59083"/>
    </traci_server>

    <random_number>
        <random value="true"/>
    </random_number>

</configuration>
-->

<tripinfos xmlns:xsi="http://www.w3.org/2001/XMLSchema-instance" xsi:noNamespaceSchemaLocation="http://sumo.dlr.de/xsd/tripinfo_file.xsd">
    <tripinfo id="2" depart="12.00" departLane="top1B3_0" departPos="5.10" departSpeed="0.00" departDelay="0.00" arrival="85.00" arrivalLane="A3left3_0" arrivalPos="286.40" arrivalSpeed="14.82" duration="73.00" routeLength="879.60" waitingTime="1.00" waitingCount="1" stopTime="0.00" timeLoss="13.84" rerouteNo="0" devices="tripinfo_2" vType="DEFAULT_VEHTYPE" speedFactor="1.09" vaporized=""/>
    <tripinfo id="0" depart="1.00" departLane="top0A3_0" departPos="5.10" departSpeed="0.00" departDelay="0.00" arrival="108.00" arrivalLane="B3top1_0" arrivalPos="286.40" arrivalSpeed="14.30" duration="107.00" routeLength="894.86" waitingTime="27.00" waitingCount="2" stopTime="0.00" timeLoss="45.71" rerouteNo="0" devices="tripinfo_0" vType="DEFAULT_VEHTYPE" speedFactor="1.08" vaporized=""/>
    <tripinfo id="1" depart="7.00" departLane="top0A3_0" departPos="5.10" departSpeed="0.00" departDelay="0.00" arrival="110.00" arrivalLane="B3top1_0" arrivalPos="286.40" arrivalSpeed="14.93" duration="103.00" routeLength="894.86" waitingTime="24.00" waitingCount="2" stopTime="0.00" timeLoss="41.95" rerouteNo="0" devices="tripinfo_1" vType="DEFAULT_VEHTYPE" speedFactor="1.09" vaporized=""/>
    <tripinfo id="3" depart="16.00" departLane="left1A1_0" departPos="5.10" departSpeed="0.00" departDelay="0.00" arrival="178.00" arrivalLane="D0bottom3_0" arrivalPos="286.40" arrivalSpeed="14.25" duration="162.00" routeLength="1780.11" waitingTime="12.00" waitingCount="3" stopTime="0.00" timeLoss="40.18" rerouteNo="0" devices="tripinfo_3" vType="DEFAULT_VEHTYPE" speedFactor="1.06" vaporized=""/>
    <tripinfo id="31" depart="143.00" departLane="top0A3_0" departPos="5.10" departSpeed="0.00" departDelay="0.00" arrival="187.00" arrivalLane="A3left3_0" arrivalPos="286.40" arrivalSpeed="14.70" duration="44.00" routeLength="576.73" waitingTime="0.00" waitingCount="0" stopTime="0.00" timeLoss="6.28" rerouteNo="0" devices="tripinfo_31" vType="DEFAULT_VEHTYPE" speedFactor="1.13" vaporized=""/>
    <tripinfo id="4" depart="17.00" departLane="left3A3_0" departPos="5.10" departSpeed="0.00" departDelay="0.00" arrival="192.00" arrivalLane="C3top2_0" arrivalPos="286.40" arrivalSpeed="11.64" duration="175.00" routeLength="1197.89" waitingTime="58.00" waitingCount="1" stopTime="0.00" timeLoss="76.17" rerouteNo="0" devices="tripinfo_4" vType="DEFAULT_VEHTYPE" speedFactor="0.88" vaporized=""/>
    <tripinfo id="23" depart="104.00" departLane="top0A3_0" departPos="5.10" departSpeed="0.00" departDelay="0.00" arrival="213.00" arrivalLane="B3top1_0" arrivalPos="286.40" arrivalSpeed="11.52" duration="109.00" routeLength="894.86" waitingTime="19.00" waitingCount="1" stopTime="0.00" timeLoss="31.22" rerouteNo="0" devices="tripinfo_23" vType="DEFAULT_VEHTYPE" speedFactor="0.84" vaporized=""/>
    <tripinfo id="7" depart="36.00" departLane="top1B3_0" departPos="5.10" departSpeed="0.00" departDelay="0.00" arrival="223.00" arrivalLane="D3top3_0" arrivalPos="286.40" arrivalSpeed="11.99" duration="187.00" routeLength="1197.66" waitingTime="77.00" waitingCount="1" stopTime="0.00" timeLoss="90.05" rerouteNo="0" devices="tripinfo_7" vType="DEFAULT_VEHTYPE" speedFactor="0.90" vaporized=""/>
    <tripinfo id="13" depart="71.00" departLane="right0D0_0" departPos="5.10" departSpeed="0.00" departDelay="0.00" arrival="227.00" arrivalLane="D0right0_0" arrivalPos="286.40" arrivalSpeed="14.38" duration="156.00" routeLength="1748.75" waitingTime="3.00" waitingCount="3" stopTime="0.00" timeLoss="40.17" rerouteNo="0" devices="tripinfo_13" vType="DEFAULT_VEHTYPE" speedFactor="1.11" vaporized=""/>
    <tripinfo id="8" depart="43.00" departLane="bottom2C0_0" departPos="5.10" departSpeed="0.00" departDelay="0.00" arrival="230.00" arrivalLane="C3top2_0" arrivalPos="286.40" arrivalSpeed="13.07" duration="187.00" routeLength="1495.58" waitingTime="44.00" waitingCount="3" stopTime="0.00" timeLoss="74.18" rerouteNo="0" devices="tripinfo_8" vType="DEFAULT_VEHTYPE" speedFactor="0.96" vaporized=""/>
    <tripinfo id="15" depart="78.00" departLane="bottom1B0_0" departPos="5.10" departSpeed="0.00" departDelay="0.00" arrival="230.00" arrivalLane="A1left1_0" arrivalPos="286.40" arrivalSpeed="12.27" duration="152.00" routeLength="1195.18" waitingTime="38.00" waitingCount="2" stopTime="0.00" timeLoss="61.49" rerouteNo="0" devices="tripinfo_15" vType="DEFAULT_VEHTYPE" speedFactor="0.96" vaporized=""/>
    <tripinfo id="25" depart="108.00" departLane="left2A2_0" departPos="5.10" departSpeed="0.00" departDelay="0.00" arrival="230.00" arrivalLane="A0left0_0" arrivalPos="286.40" arrivalSpeed="12.03" duration="122.00" routeLength="1161.43" waitingTime="4.00" waitingCount="2" stopTime="0.00" timeLoss="27.89" rerouteNo="0" devices="tripinfo_25" vType="DEFAULT_VEHTYPE" speedFactor="0.90" vaporized=""/>
    <tripinfo id="14" depart="74.00" departLane="bottom1B0_0" departPos="5.10" departSpeed="0.00" departDelay="0.00" arrival="232.00" arrivalLane="A2left2_0" arrivalPos="286.40" arrivalSpeed="13.13" duration="158.00" routeLength="1495.35" waitingTime="32.00" waitingCount="2" stopTime="0.00" timeLoss="49.39" rerouteNo="0" devices="tripinfo_14" vType="DEFAULT_VEHTYPE" speedFactor="1.00" vaporized=""/>
    <tripinfo id="19" depart="91.00" departLane="bottom0A0_0" departPos="5.10" departSpeed="0.00" departDelay="0.00" arrival="251.00" arrivalLane="D0right0_0" arrivalPos="286.40" arrivalSpeed="12.15" duration="160.00" routeLength="1479.94" waitingTime="16.00" waitingCount="4" stopTime="0.00" timeLoss="45.06" rerouteNo="0" devices="tripinfo_19" vType="DEFAULT_VEHTYPE" speedFactor="0.93" vaporized=""/>
    <tripinfo id="10" depart="51.00" departLane="right1D1_0" departPos="5.10" departSpeed="0.00" departDelay="0.00" arrival="252.00" arrivalLane="C0bottom2_0" arrivalPos="286.40" arrivalSpeed="10.85" duration="201.00" routeLength="1195.18" waitingTime="85.00" waitingCount="2" stopTime="0.00" timeLoss="101.26" rerouteNo="0" devices="tripinfo_10" vType="DEFAULT_VEHTYPE" speedFactor="0.87" vaporized=""/>
    <tripinfo id="18" depart="86.00" departLane="bottom2C0_0" departPos="5.10" departSpeed="0.00" departDelay="0.00" arrival="262.00" arrivalLane="C0bottom2_0" arrivalPos="286.40" arrivalSpeed="11.46" duration="176.00" routeLength="1748.75" waitingTime="6.00" waitingCount="3" stopTime="0.00" timeLoss="33.01" rerouteNo="0" devices="tripinfo_18" vType="DEFAULT_VEHTYPE" speedFactor="0.90" vaporized=""/>
    <tripinfo id="6" depart="35.00" departLane="top0A3_0" departPos="5.10" departSpeed="0.00" departDelay="0.00" arrival="267.00" arrivalLane="D3right3_0" arrivalPos="286.40" arrivalSpeed="14.92" duration="232.00" routeLength="1495.35" waitingTime="104.00" waitingCount="4" stopTime="0.00" timeLoss="134.61" rerouteNo="0" devices="tripinfo_6" vType="DEFAULT_VEHTYPE" speedFactor="1.11" vaporized=""/>
    <tripinfo id="53" depart="223.00" departLane="left3A3_0" departPos="5.10" departSpeed="0.00" departDelay="0.00" arrival="279.00" arrivalLane="A3top0_0" arrivalPos="286.40" arrivalSpeed="14.03" duration="56.00" routeLength="597.55" waitingTime="3.00" waitingCount="1" stopTime="0.00" timeLoss="13.50" rerouteNo="0" devices="tripinfo_53" vType="DEFAULT_VEHTYPE" speedFactor="1.05" vaporized=""/>
    <tripinfo id="5" depart="34.00" departLane="bottom1B0_0" departPos="5.10" departSpeed="0.00" departDelay="0.00" arrival="289.00" arrivalLane="B0bottom1_0" arrivalPos="286.40" arrivalSpeed="13.45" duration="255.00" routeLength="1748.75" waitingTime="107.00" waitingCount="3" stopTime="0.00" timeLoss="130.97" rerouteNo="0" devices="tripinfo_5" vType="DEFAULT_VEHTYPE" speedFactor="1.04" vaporized=""/>
    <tripinfo id="36" depart="167.00" departLane="bottom3D0_0" departPos="5.10" departSpeed="0.00" departDelay="0.00" arrival="299.00" arrivalLane="D2right2_0" arrivalPos="286.40" arrivalSpeed="11.42" duration="132.00" routeLength="1177.07" waitingTime="19.00" waitingCount="2" stopTime="0.00" timeLoss="38.33" rerouteNo="0" devices="tripinfo_36" vType="DEFAULT_VEHTYPE" speedFactor="0.91" vaporized=""/>
    <tripinfo id="46" depart="203.00" departLane="bottom0A0_0" departPos="5.10" departSpeed="0.00" departDelay="0.00" arrival="306.00" arrivalLane="C0bottom2_0" arrivalPos="286.40" arrivalSpeed="13.41" duration="103.00" routeLength="1161.43" waitingTime="2.00" waitingCount="1" stopTime="0.00" timeLoss="22.21" rerouteNo="0" devices="tripinfo_46" vType="DEFAULT_VEHTYPE" speedFactor="1.06" vaporized=""/>
    <tripinfo id="9" depart="51.00" departLane="top2C3_0" departPos="5.10" departSpeed="0.00" departDelay="0.00" arrival="310.00" arrivalLane="C3top2_0" arrivalPos="286.40" arrivalSpeed="13.27" duration="259.00" routeLength="1748.75" waitingTime="96.00" waitingCount="4" stopTime="0.00" timeLoss="125.60" rerouteNo="0" devices="tripinfo_9" vType="DEFAULT_VEHTYPE" speedFactor="0.96" vaporized=""/>
    <tripinfo id="16" depart="84.00" departLane="left0A0_0" departPos="5.10" departSpeed="0.00" departDelay="0.00" arrival="310.00" arrivalLane="A3top0_1" arrivalPos="286.40" arrivalSpeed="14.99" duration="226.00" routeLength="1495.35" waitingTime="96.00" waitingCount="3" stopTime="0.00" timeLoss="125.67" rerouteNo="0" devices="tripinfo_16" vType="DEFAULT_VEHTYPE" speedFactor="1.09" vaporized=""/>
    <tripinfo id="21" depart="91.00" departLane="bottom2C0_0" departPos="5.10" departSpeed="0.00" departDelay="0.00" arrival="313.00" arrivalLane="A0bottom0_1" arrivalPos="286.40" arrivalSpeed="12.16" duration="222.00" routeLength="1197.66" waitingTime="110.00" waitingCount="3" stopTime="0.00" timeLoss="129.84" rerouteNo="0" devices="tripinfo_21" vType="DEFAULT_VEHTYPE" speedFactor="0.95" vaporized=""/>
    <tripinfo id="29" depart="138.00" departLane="left1A1_0" departPos="5.10" departSpeed="0.00" departDelay="0.00" arrival="313.00" arrivalLane="A3top0_0" arrivalPos="286.40" arrivalSpeed="10.48" duration="175.00" routeLength="1195.18" waitingTime="59.00" waitingCount="1" stopTime="0.00" timeLoss="71.87" rerouteNo="0" devices="tripinfo_29" vType="DEFAULT_VEHTYPE" speedFactor="0.84" vaporized=""/>
    <tripinfo id="26" depart="129.00" departLane="bottom1B0_0" departPos="5.10" departSpeed="0.00" departDelay="0.00" arrival="314.00" arrivalLane="A0bottom0_0" arrivalPos="286.40" arrivalSpeed="11.35" duration="185.00" routeLength="894.86" waitingTime="91.00" waitingCount="2" stopTime="0.00" timeLoss="106.43" rerouteNo="0" devices="tripinfo_26" vType="DEFAULT_VEHTYPE" speedFactor="0.84" vaporized=""/>
    <tripinfo id="41" depart="184.00" departLane="top0A3_0" departPos="5.10" departSpeed="0.00" departDelay="0.00" arrival="315.00" arrivalLane="C3top2_0" arrivalPos="286.40" arrivalSpeed="12.47" duration="131.00" routeLength="1197.66" waitingTime="27.00" waitingCount="1" stopTime="0.00" timeLoss="40.38" rerouteNo="0" devices="tripinfo_41" vType="DEFAULT_VEHTYPE" speedFactor="0.97" vaporized=""/>
    <tripinfo id="37" depart="167.00" departLane="top1B3_0" departPos="5.10" departSpeed="0.00" departDelay="0.00" arrival="323.00" arrivalLane="B3top1_0" arrivalPos="286.40" arrivalSpeed="16.61" duration="156.00" routeLength="1748.75" waitingTime="8.00" waitingCount="4" stopTime="0.00" timeLoss="50.64" rerouteNo="0" devices="tripinfo_37" vType="DEFAULT_VEHTYPE" speedFactor="1.22" vaporized=""/>
    <tripinfo id="39" depart="181.00" departLane="left0A0_0" departPos="5.10" departSpeed="0.00" departDelay="0.00" arrival="331.00" arrivalLane="D0bottom3_0" arrivalPos="286.40" arrivalSpeed="13.30" duration="150.00" routeLength="1477.24" waitingTime="20.00" waitingCount="2" stopTime="0.00" timeLoss="46.71" rerouteNo="0" devices="tripinfo_39" vType="DEFAULT_VEHTYPE" speedFactor="1.04" vaporized=""/>
    <tripinfo id="62" depart="262.00" departLane="left2A2_0" departPos="5.10" departSpeed="0.00" departDelay="0.00" arrival="337.00" arrivalLane="A1left1_0" arrivalPos="286.40" arrivalSpeed="13.58" duration="75.00" routeLength="858.56" waitingTime="1.00" waitingCount="1" stopTime="0.00" timeLoss="13.66" rerouteNo="0" devices="tripinfo_62" vType="DEFAULT_VEHTYPE" speedFactor="1.02" vaporized=""/>
    <tripinfo id="20" depart="91.00" departLane="left3A3_0" departPos="5.10" departSpeed="0.00" departDelay="0.00" arrival="348.00" arrivalLane="A0bottom0_0" arrivalPos="286.40" arrivalSpeed="14.05" duration="257.00" routeLength="1479.94" waitingTime="124.00" waitingCount="4" stopTime="0.00" timeLoss="153.67" rerouteNo="0" devices="tripinfo_20" vType="DEFAULT_VEHTYPE" speedFactor="1.04" vaporized=""/>
    <tripinfo id="38" depart="175.00" departLane="bottom0A0_0" departPos="5.10" departSpeed="0.00" departDelay="0.00" arrival="350.00" arrivalLane="A2left2_0" arrivalPos="286.40" arrivalSpeed="12.33" duration="175.00" routeLength="1197.89" waitingTime="62.00" waitingCount="3" stopTime="0.00" timeLoss="85.36" rerouteNo="0" devices="tripinfo_38" vType="DEFAULT_VEHTYPE" speedFactor="0.98" vaporized=""/>
    <tripinfo id="63" depart="268.00" departLane="bottom1B0_0" departPos="5.10" departSpeed="0.00" departDelay="0.00" arrival="359.00" arrivalLane="C0bottom2_0" arrivalPos="286.40" arrivalSpeed="11.63" duration="91.00" routeLength="858.56" waitingTime="2.00" waitingCount="2" stopTime="0.00" timeLoss="16.27" rerouteNo="0" devices="tripinfo_63" vType="DEFAULT_VEHTYPE" speedFactor="0.85" vaporized=""/>
    <tripinfo id="61" depart="261.00" departLane="bottom1B0_0" departPos="5.10" departSpeed="0.00" departDelay="0.00" arrival="361.00" arrivalLane="D0bottom3_0" arrivalPos="286.40" arrivalSpeed="15.05" duration="100.00" routeLength="1161.43" waitingTime="8.00" waitingCount="2" stopTime="0.00" timeLoss="27.55" rerouteNo="0" devices="tripinfo_61" vType="DEFAULT_VEHTYPE" speedFactor="1.18" vaporized=""/>
    <tripinfo id="69" depart="293.00" departLane="right0D0_0" departPos="5.10" departSpeed="0.00" departDelay="0.00" arrival="375.00" arrivalLane="D1right1_0" arrivalPos="286.40" arrivalSpeed="11.76" duration="82.00" routeLength="858.56" waitingTime="1.00" waitingCount="1" stopTime="0.00" timeLoss="13.41" rerouteNo="0" devices="tripinfo_69" vType="DEFAULT_VEHTYPE" speedFactor="0.93" vaporized=""/>
    <tripinfo id="12" depart="70.00" departLane="left2A2_0" departPos="5.10" departSpeed="0.00" departDelay="0.00" arrival="378.00" arrivalLane="D3top3_0" arrivalPos="286.40" arrivalSpeed="13.30" duration="308.00" routeLength="1795.52" waitingTime="152.00" waitingCount="4" stopTime="0.00" timeLoss="184.02" rerouteNo="0" devices="tripinfo_12" vType="DEFAULT_VEHTYPE" speedFactor="1.05" vaporized=""/>
    <tripinfo id="67" depart="288.00" departLane="right0D0_0" departPos="5.10" departSpeed="0.00" departDelay="0.00" arrival="379.00" arrivalLane="D0bottom3_0" arrivalPos="286.40" arrivalSpeed="13.39" duration="91.00" routeLength="597.55" waitingTime="39.00" waitingCount="1" stopTime="0.00" timeLoss="48.81" rerouteNo="0" devices="tripinfo_67" vType="DEFAULT_VEHTYPE" speedFactor="1.05" vaporized=""/>
    <tripinfo id="65" depart="279.00" departLane="right3D3_0" departPos="5.10" departSpeed="0.00" departDelay="0.00" arrival="385.00" arrivalLane="C3top2_0" arrivalPos="286.40" arrivalSpeed="14.09" duration="106.00" routeLength="876.90" waitingTime="29.00" waitingCount="2" stopTime="0.00" timeLoss="45.53" rerouteNo="0" devices="tripinfo_65" vType="DEFAULT_VEHTYPE" speedFactor="1.05" vaporized=""/>
    <tripinfo id="42" depart="185.00" departLane="right3D3_0" departPos="5.10" departSpeed="0.00" departDelay="0.00" arrival="388.00" arrivalLane="A2left2_0" arrivalPos="286.40" arrivalSpeed="13.48" duration="203.00" routeLength="1782.59" waitingTime="47.00" waitingCount="4" stopTime="0.00" timeLoss="78.38" rerouteNo="0" devices="tripinfo_42" vType="DEFAULT_VEHTYPE" speedFactor="1.05" vaporized=""/>
    <tripinfo id="59" depart="255.00" departLane="top2C3_0" departPos="5.10" departSpeed="0.00" departDelay="0.00" arrival="390.00" arrivalLane="A3left3_0" arrivalPos="286.40" arrivalSpeed="12.95" duration="135.00" routeLength="1179.77" waitingTime="27.00" waitingCount="2" stopTime="0.00" timeLoss="46.50" rerouteNo="0" devices="tripinfo_59" vType="DEFAULT_VEHTYPE" speedFactor="0.97" vaporized=""/>
    <tripinfo id="60" depart="259.00" departLane="left2A2_0" departPos="5.10" departSpeed="0.00" departDelay="0.00" arrival="391.00" arrivalLane="B3top1_1" arrivalPos="286.40" arrivalSpeed="13.36" duration="132.00" routeLength="1195.18" waitingTime="30.00" waitingCount="2" stopTime="0.00" timeLoss="47.24" rerouteNo="0" devices="tripinfo_60" vType="DEFAULT_VEHTYPE" speedFactor="1.02" vaporized=""/>
    <tripinfo id="45" depart="202.00" departLane="bottom1B0_0" departPos="5.10" departSpeed="0.00" departDelay="0.00" arrival="395.00" arrivalLane="B0bottom1_0" arrivalPos="286.40" arrivalSpeed="15.15" duration="193.00" routeLength="1748.75" waitingTime="57.00" waitingCount="2" stopTime="0.00" timeLoss="80.57" rerouteNo="0" devices="tripinfo_45" vType="DEFAULT_VEHTYPE" speedFactor="1.15" vaporized=""/>
    <tripinfo id="75" depart="317.00" departLane="top3D3_0" departPos="5.10" departSpeed="0.00" departDelay="0.00" arrival="396.00" arrivalLane="C3top2_0" arrivalPos="286.40" arrivalSpeed="13.44" duration="79.00" routeLength="858.56" waitingTime="1.00" waitingCount="1" stopTime="0.00" timeLoss="14.74" rerouteNo="0" devices="tripinfo_75" vType="DEFAULT_VEHTYPE" speedFactor="0.98" vaporized=""/>
    <tripinfo id="58" depart="253.00" departLane="top3D3_0" departPos="5.10" departSpeed="0.00" departDelay="0.00" arrival="397.00" arrivalLane="B3top1_1" arrivalPos="286.40" arrivalSpeed="12.60" duration="144.00" routeLength="1161.43" waitingTime="18.00" waitingCount="3" stopTime="0.00" timeLoss="55.12" rerouteNo="0" devices="tripinfo_58" vType="DEFAULT_VEHTYPE" speedFactor="0.96" vaporized=""/>
    <tripinfo id="72" depart="305.00" departLane="bottom3D0_0" departPos="5.10" departSpeed="0.00" departDelay="0.00" arrival="398.00" arrivalLane="C0bottom2_0" arrivalPos="286.40" arrivalSpeed="13.76" duration="93.00" routeLength="894.86" waitingTime="11.00" waitingCount="2" stopTime="0.00" timeLoss="29.42" rerouteNo="0" devices="tripinfo_72" vType="DEFAULT_VEHTYPE" speedFactor="1.03" vaporized=""/>
    <tripinfo id="24" depart="105.00" departLane="right2D2_0" departPos="5.10" departSpeed="0.00" departDelay="0.00" arrival="399.00" arrivalLane="A1left1_0" arrivalPos="286.40" arrivalSpeed="13.34" duration="294.00" routeLength="1782.59" waitingTime="130.00" waitingCount="5" stopTime="0.00" timeLoss="166.60" rerouteNo="0" devices="tripinfo_24" vType="DEFAULT_VEHTYPE" speedFactor="1.02" vaporized=""/>
    <tripinfo id="48" depart="210.00" departLane="right3D3_0" departPos="5.10" departSpeed="0.00" departDelay="0.00" arrival="400.00" arrivalLane="B3top1_0" arrivalPos="286.40" arrivalSpeed="8.77" duration="190.00" routeLength="1177.07" waitingTime="44.00" waitingCount="2" stopTime="0.00" timeLoss="62.15" rerouteNo="0" devices="tripinfo_48" vType="DEFAULT_VEHTYPE" speedFactor="0.67" vaporized=""/>
    <tripinfo id="27" depart="131.00" departLane="bottom0A0_0" departPos="5.10" departSpeed="0.00" departDelay="0.00" arrival="403.00" arrivalLane="D3top3_0" arrivalPos="286.40" arrivalSpeed="11.87" duration="272.00" routeLength="2382.93" waitingTime="42.00" waitingCount="4" stopTime="0.00" timeLoss="76.47" rerouteNo="0" devices="tripinfo_27" vType="DEFAULT_VEHTYPE" speedFactor="0.89" vaporized=""/>
    <tripinfo id="33" depart="152.00" departLane="top3D3_0" departPos="5.10" departSpeed="0.00" departDelay="0.00" arrival="418.00" arrivalLane="B0bottom1_0" arrivalPos="286.40" arrivalSpeed="14.08" duration="266.00" routeLength="2082.76" waitingTime="97.00" waitingCount="4" stopTime="0.00" timeLoss="127.25" rerouteNo="0" devices="tripinfo_33" vType="DEFAULT_VEHTYPE" speedFactor="1.09" vaporized=""/>
    <tripinfo id="11" depart="66.00" departLane="top0A3_0" departPos="5.10" departSpeed="0.00" departDelay="0.00" arrival="426.00" arrivalLane="B0bottom1_0" arrivalPos="286.40" arrivalSpeed="15.86" duration="360.00" routeLength="1782.59" waitingTime="211.00" waitingCount="5" stopTime="0.00" timeLoss="248.63" rerouteNo="0" devices="tripinfo_11" vType="DEFAULT_VEHTYPE" speedFactor="1.16" vaporized=""/>
    <tripinfo id="44" depart="197.00" departLane="left0A0_0" departPos="5.10" departSpeed="0.00" departDelay="0.00" arrival="431.00" arrivalLane="D3top3_0" arrivalPos="286.40" arrivalSpeed="13.08" duration="234.00" routeLength="2395.86" waitingTime="15.00" waitingCount="3" stopTime="0.00" timeLoss="50.80" rerouteNo="0" devices="tripinfo_44" vType="DEFAULT_VEHTYPE" speedFactor="0.95" vaporized=""/>
    <tripinfo id="22" depart="101.00" departLane="left1A1_0" departPos="5.10" departSpeed="0.00" departDelay="0.00" arrival="432.00" arrivalLane="C3top2_0" arrivalPos="286.40" arrivalSpeed="11.94" duration="331.00" routeLength="1795.52" waitingTime="152.00" waitingCount="5" stopTime="0.00" timeLoss="189.80" rerouteNo="0" devices="tripinfo_22" vType="DEFAULT_VEHTYPE" speedFactor="0.92" vaporized=""/>
    <tripinfo id="28" depart="134.00" departLane="bottom3D0_0" departPos="5.10" departSpeed="0.00" departDelay="0.00" arrival="432.00" arrivalLane="C3top2_1" arrivalPos="286.40" arrivalSpeed="12.59" duration="298.00" routeLength="1782.59" waitingTime="132.00" waitingCount="4" stopTime="0.00" timeLoss="168.14" rerouteNo="0" devices="tripinfo_28" vType="DEFAULT_VEHTYPE" speedFactor="1.00" vaporized=""/>
    <tripinfo id="85" depart="367.00" departLane="right2D2_0" departPos="5.10" departSpeed="0.00" departDelay="0.00" arrival="432.00" arrivalLane="D3right3_0" arrivalPos="286.40" arrivalSpeed="14.90" duration="65.00" routeLength="858.56" waitingTime="0.00" waitingCount="0" stopTime="0.00" timeLoss="9.11" rerouteNo="0" devices="tripinfo_85" vType="DEFAULT_VEHTYPE" speedFactor="1.13" vaporized=""/>
    <tripinfo id="47" depart="208.00" departLane="right1D1_0" departPos="5.10" departSpeed="0.00" departDelay="0.00" arrival="434.00" arrivalLane="C0bottom2_0" arrivalPos="286.40" arrivalSpeed="11.24" duration="226.00" routeLength="1195.18" waitingTime="99.00" waitingCount="3" stopTime="0.00" timeLoss="121.90" rerouteNo="0" devices="tripinfo_47" vType="DEFAULT_VEHTYPE" speedFactor="0.84" vaporized=""/>
    <tripinfo id="32" depart="148.00" departLane="right3D3_0" departPos="5.10" departSpeed="0.00" departDelay="0.00" arrival="437.00" arrivalLane="D1right1_0" arrivalPos="286.40" arrivalSpeed="15.43" duration="289.00" routeLength="1197.66" waitingTime="193.00" waitingCount="2" stopTime="0.00" timeLoss="211.33" rerouteNo="0" devices="tripinfo_32" vType="DEFAULT_VEHTYPE" speedFactor="1.13" vaporized=""/>
    <tripinfo id="35" depart="162.00" departLane="right3D3_0" departPos="5.10" departSpeed="0.00" departDelay="0.00" arrival="442.00" arrivalLane="D1right1_0" arrivalPos="286.40" arrivalSpeed="12.81" duration="280.00" routeLength="1197.66" waitingTime="172.00" waitingCount="2" stopTime="0.00" timeLoss="190.83" rerouteNo="0" devices="tripinfo_35" vType="DEFAULT_VEHTYPE" speedFactor="0.98" vaporized=""/>
    <tripinfo id="57" depart="241.00" departLane="top3D3_0" departPos="5.10" departSpeed="0.00" departDelay="0.00" arrival="442.00" arrivalLane="D1right1_1" arrivalPos="286.40" arrivalSpeed="14.26" duration="201.00" routeLength="1197.89" waitingTime="92.00" waitingCount="3" stopTime="0.00" timeLoss="118.64" rerouteNo="0" devices="tripinfo_57" vType="DEFAULT_VEHTYPE" speedFactor="1.05" vaporized=""/>
    <tripinfo id="87" depart="375.00" departLane="bottom2C0_0" departPos="5.10" departSpeed="0.00" departDelay="0.00" arrival="449.00" arrivalLane="D0bottom3_0" arrivalPos="286.40" arrivalSpeed="15.62" duration="74.00" routeLength="858.56" waitingTime="2.00" waitingCount="2" stopTime="0.00" timeLoss="18.13" rerouteNo="0" devices="tripinfo_87" vType="DEFAULT_VEHTYPE" speedFactor="1.13" vaporized=""/>
    <tripinfo id="80" depart="337.00" departLane="top0A3_0" departPos="5.10" departSpeed="0.00" departDelay="0.00" arrival="453.00" arrivalLane="B3top1_0" arrivalPos="286.40" arrivalSpeed="12.10" duration="116.00" routeLength="894.86" waitingTime="24.00" waitingCount="2" stopTime="0.00" timeLoss="41.02" rerouteNo="0" devices="tripinfo_80" vType="DEFAULT_VEHTYPE" speedFactor="0.88" vaporized=""/>
    <tripinfo id="17" depart="85.00" departLane="left3A3_0" departPos="5.10" departSpeed="0.00" departDelay="0.00" arrival="457.00" arrivalLane="D1right1_0" arrivalPos="286.40" arrivalSpeed="15.04" duration="372.00" routeLength="2082.76" waitingTime="187.00" waitingCount="6" stopTime="0.00" timeLoss="236.33" rerouteNo="0" devices="tripinfo_17" vType="DEFAULT_VEHTYPE" speedFactor="1.12" vaporized=""/>
    <tripinfo id="54" depart="225.00" departLane="right1D1_0" departPos="5.10" departSpeed="0.00" departDelay="0.00" arrival="466.00" arrivalLane="A2left2_0" arrivalPos="286.40" arrivalSpeed="15.70" duration="241.00" routeLength="1782.72" waitingTime="90.00" waitingCount="5" stopTime="0.00" timeLoss="128.66" rerouteNo="0" devices="tripinfo_54" vType="DEFAULT_VEHTYPE" speedFactor="1.15" vaporized=""/>
    <tripinfo id="77" depart="325.00" departLane="top3D3_0" departPos="5.10" departSpeed="0.00" departDelay="0.00" arrival="477.00" arrivalLane="D0bottom3_0" arrivalPos="286.40" arrivalSpeed="14.43" duration="152.00" routeLength="1495.58" waitingTime="34.00" waitingCount="2" stopTime="0.00" timeLoss="56.13" rerouteNo="0" devices="tripinfo_77" vType="DEFAULT_VEHTYPE" speedFactor="1.13" vaporized=""/>
    <tripinfo id="76" depart="324.00" departLane="right2D2_0" departPos="5.10" departSpeed="0.00" departDelay="0.00" arrival="478.00" arrivalLane="D0right0_0" arrivalPos="286.40" arrivalSpeed="15.19" duration="154.00" routeLength="1197.66" waitingTime="49.00" waitingCount="3" stopTime="0.00" timeLoss="74.65" rerouteNo="0" devices="tripinfo_76" vType="DEFAULT_VEHTYPE" speedFactor="1.11" vaporized=""/>
    <tripinfo id="70" depart="299.00" departLane="right2D2_0" departPos="5.10" departSpeed="0.00" departDelay="0.00" arrival="487.00" arrivalLane="C3top2_0" arrivalPos="286.40" arrivalSpeed="16.12" duration="188.00" routeLength="1179.77" waitingTime="89.00" waitingCount="3" stopTime="0.00" timeLoss="114.35" rerouteNo="0" devices="tripinfo_70" vType="DEFAULT_VEHTYPE" speedFactor="1.17" vaporized=""/>
    <tripinfo id="91" depart="399.00" departLane="bottom0A0_0" departPos="5.10" departSpeed="0.00" departDelay="0.00" arrival="502.00" arrivalLane="C0bottom2_0" arrivalPos="286.40" arrivalSpeed="13.35" duration="103.00" routeLength="1161.43" waitingTime="1.00" waitingCount="1" stopTime="0.00" timeLoss="14.21" rerouteNo="0" devices="tripinfo_91" vType="DEFAULT_VEHTYPE" speedFactor="0.96" vaporized=""/>
    <tripinfo id="52" depart="220.00" departLane="top2C3_0" departPos="5.10" departSpeed="0.00" departDelay="0.00" arrival="508.00" arrivalLane="A0left0_0" arrivalPos="286.40" arrivalSpeed="13.70" duration="288.00" routeLength="2080.28" waitingTime="97.00" waitingCount="5" stopTime="0.00" timeLoss="147.23" rerouteNo="0" devices="tripinfo_52" vType="DEFAULT_VEHTYPE" speedFactor="1.07" vaporized=""/>
    <tripinfo id="56" depart="232.00" departLane="left2A2_0" departPos="5.10" departSpeed="0.00" departDelay="0.00" arrival="513.00" arrivalLane="B0bottom1_0" arrivalPos="286.40" arrivalSpeed="11.62" duration="281.00" routeLength="1479.94" waitingTime="129.00" waitingCount="4" stopTime="0.00" timeLoss="158.15" rerouteNo="0" devices="tripinfo_56" vType="DEFAULT_VEHTYPE" speedFactor="0.88" vaporized=""/>
    <tripinfo id="49" depart="210.00" departLane="left0A0_0" departPos="5.10" departSpeed="0.00" departDelay="0.00" arrival="517.00" arrivalLane="A2left2_0" arrivalPos="286.40" arrivalSpeed="15.30" duration="307.00" routeLength="1197.66" waitingTime="205.00" waitingCount="3" stopTime="0.00" timeLoss="230.34" rerouteNo="0" devices="tripinfo_49" vType="DEFAULT_VEHTYPE" speedFactor="1.14" vaporized=""/>
    <tripinfo id="50" depart="213.00" departLane="right0D0_0" departPos="5.10" departSpeed="0.00" departDelay="0.00" arrival="520.00" arrivalLane="A2left2_0" arrivalPos="286.40" arrivalSpeed="13.83" duration="307.00" routeLength="2082.76" waitingTime="116.00" waitingCount="5" stopTime="0.00" timeLoss="166.10" rerouteNo="0" devices="tripinfo_50" vType="DEFAULT_VEHTYPE" speedFactor="1.08" vaporized=""/>
    <tripinfo id="110" depart="448.00" departLane="right2D2_0" departPos="5.10" departSpeed="0.00" departDelay="0.00" arrival="523.00" arrivalLane="D3right3_0" arrivalPos="286.40" arrivalSpeed="14.66" duration="75.00" routeLength="858.56" waitingTime="2.00" waitingCount="2" stopTime="0.00" timeLoss="18.39" rerouteNo="0" devices="tripinfo_110" vType="DEFAULT_VEHTYPE" speedFactor="1.11" vaporized=""/>