<?xml version="1.0" encoding="UTF-8"?>

<!-- generated on 12/17/21 21:06:21 by Eclipse SUMO sumo Version 1.7.0
<configuration xmlns:xsi="http://www.w3.org/2001/XMLSchema-instance" xsi:noNamespaceSchemaLocation="http://sumo.dlr.de/xsd/sumoConfiguration.xsd">

    <input>
        <net-file value="C:\Users\longs\Desktop\RESCO-main\environments\grid4x4\grid4x4.net.xml"/>
        <route-files value="C:\Users\longs\Desktop\RESCO-main\environments\grid4x4\grid4x4_2.rou.xml"/>
    </input>

    <output>
        <tripinfo-output value="C:\Users\longs\Desktop\RESCO-main\logs\STOCHASTIC-tr1-grid4x4-0-mplight-wait\tripinfo_2.xml"/>
        <tripinfo-output.write-unfinished value="true"/>
    </output>

    <processing>
        <time-to-teleport value="-1"/>
    </processing>

    <report>
        <no-warnings value="true"/>
        <no-step-log value="true"/>
    </report>

    <traci_server>
        <remote-port value="59076"/>
    </traci_server>

    <random_number>
        <random value="true"/>
    </random_number>

</configuration>
-->

<tripinfos xmlns:xsi="http://www.w3.org/2001/XMLSchema-instance" xsi:noNamespaceSchemaLocation="http://sumo.dlr.de/xsd/tripinfo_file.xsd">
    <tripinfo id="6" depart="24.00" departLane="bottom3D0_0" departPos="5.10" departSpeed="0.00" departDelay="0.00" arrival="93.00" arrivalLane="D1right1_0" arrivalPos="286.40" arrivalSpeed="14.31" duration="69.00" routeLength="876.90" waitingTime="0.00" waitingCount="0" stopTime="0.00" timeLoss="8.19" rerouteNo="0" devices="tripinfo_6" vType="DEFAULT_VEHTYPE" speedFactor="1.06" vaporized=""/>
    <tripinfo id="4" depart="19.00" departLane="right0D0_0" departPos="5.10" departSpeed="0.00" departDelay="0.00" arrival="105.00" arrivalLane="D1right1_0" arrivalPos="286.40" arrivalSpeed="12.56" duration="86.00" routeLength="858.56" waitingTime="5.00" waitingCount="2" stopTime="0.00" timeLoss="20.64" rerouteNo="0" devices="tripinfo_4" vType="DEFAULT_VEHTYPE" speedFactor="0.97" vaporized=""/>
    <tripinfo id="1" depart="6.00" departLane="right0D0_0" departPos="5.10" departSpeed="0.00" departDelay="0.00" arrival="128.00" arrivalLane="D3top3_0" arrivalPos="286.40" arrivalSpeed="15.09" duration="122.00" routeLength="1479.94" waitingTime="5.00" waitingCount="2" stopTime="0.00" timeLoss="25.01" rerouteNo="0" devices="tripinfo_1" vType="DEFAULT_VEHTYPE" speedFactor="1.11" vaporized=""/>
    <tripinfo id="8" depart="39.00" departLane="top1B3_0" departPos="5.10" departSpeed="0.00" departDelay="0.00" arrival="142.00" arrivalLane="C3top2_0" arrivalPos="286.40" arrivalSpeed="12.57" duration="103.00" routeLength="894.86" waitingTime="19.00" waitingCount="1" stopTime="0.00" timeLoss="31.62" rerouteNo="0" devices="tripinfo_8" vType="DEFAULT_VEHTYPE" speedFactor="0.93" vaporized=""/>
    <tripinfo id="7" depart="27.00" departLane="left1A1_0" departPos="5.10" departSpeed="0.00" departDelay="0.00" arrival="151.00" arrivalLane="A3top0_0" arrivalPos="286.40" arrivalSpeed="12.50" duration="124.00" routeLength="1195.18" waitingTime="6.00" waitingCount="1" stopTime="0.00" timeLoss="28.33" rerouteNo="0" devices="tripinfo_7" vType="DEFAULT_VEHTYPE" speedFactor="0.91" vaporized=""/>
    <tripinfo id="27" depart="156.00" departLane="right3D3_0" departPos="5.10" departSpeed="0.00" departDelay="0.00" arrival="207.00" arrivalLane="D3top3_0" arrivalPos="286.40" arrivalSpeed="13.47" duration="51.00" routeLength="576.73" waitingTime="0.00" waitingCount="0" stopTime="0.00" timeLoss="10.27" rerouteNo="0" devices="tripinfo_27" vType="DEFAULT_VEHTYPE" speedFactor="1.05" vaporized=""/>
    <tripinfo id="22" depart="136.00" departLane="top3D3_0" departPos="5.10" departSpeed="0.00" departDelay="0.00" arrival="217.00" arrivalLane="C3top2_0" arrivalPos="286.40" arrivalSpeed="13.38" duration="81.00" routeLength="858.56" waitingTime="2.00" waitingCount="2" stopTime="0.00" timeLoss="17.49" rerouteNo="0" devices="tripinfo_22" vType="DEFAULT_VEHTYPE" speedFactor="1.00" vaporized=""/>
    <tripinfo id="0" depart="1.00" departLane="left1A1_0" departPos="5.10" departSpeed="0.00" departDelay="0.00" arrival="229.00" arrivalLane="A0bottom0_0" arrivalPos="286.40" arrivalSpeed="13.37" duration="228.00" routeLength="879.60" waitingTime="148.00" waitingCount="2" stopTime="0.00" timeLoss="165.72" rerouteNo="0" devices="tripinfo_0" vType="DEFAULT_VEHTYPE" speedFactor="1.04" vaporized=""/>
    <tripinfo id="13" depart="96.00" departLane="top2C3_0" departPos="5.10" departSpeed="0.00" departDelay="0.00" arrival="232.00" arrivalLane="A3left3_0" arrivalPos="286.40" arrivalSpeed="13.12" duration="136.00" routeLength="1179.77" waitingTime="34.00" waitingCount="2" stopTime="0.00" timeLoss="50.87" rerouteNo="0" devices="tripinfo_13" vType="DEFAULT_VEHTYPE" speedFactor="1.01" vaporized=""/>
    <tripinfo id="14" depart="99.00" departLane="top2C3_0" departPos="5.10" departSpeed="0.00" departDelay="3.00" arrival="233.00" arrivalLane="A3left3_1" arrivalPos="286.40" arrivalSpeed="14.02" duration="134.00" routeLength="1179.77" waitingTime="30.00" waitingCount="2" stopTime="0.00" timeLoss="49.86" rerouteNo="0" devices="tripinfo_14" vType="DEFAULT_VEHTYPE" speedFactor="1.02" vaporized=""/>
    <tripinfo id="17" depart="111.00" departLane="left1A1_0" departPos="5.10" departSpeed="0.00" departDelay="0.00" arrival="243.00" arrivalLane="C0bottom2_0" arrivalPos="286.40" arrivalSpeed="12.94" duration="132.00" routeLength="1479.94" waitingTime="2.00" waitingCount="2" stopTime="0.00" timeLoss="20.77" rerouteNo="0" devices="tripinfo_17" vType="DEFAULT_VEHTYPE" speedFactor="0.97" vaporized=""/>
    <tripinfo id="18" depart="129.00" departLane="bottom0A0_0" departPos="5.10" departSpeed="0.00" departDelay="0.00" arrival="245.00" arrivalLane="D0right0_0" arrivalPos="286.40" arrivalSpeed="15.28" duration="116.00" routeLength="1479.94" waitingTime="2.00" waitingCount="2" stopTime="0.00" timeLoss="24.33" rerouteNo="0" devices="tripinfo_18" vType="DEFAULT_VEHTYPE" speedFactor="1.17" vaporized=""/>
    <tripinfo id="3" depart="11.00" departLane="top2C3_0" departPos="5.10" departSpeed="0.00" departDelay="0.00" arrival="251.00" arrivalLane="A1left1_0" arrivalPos="286.40" arrivalSpeed="12.10" duration="240.00" routeLength="1780.11" waitingTime="69.00" waitingCount="4" stopTime="0.00" timeLoss="102.63" rerouteNo="0" devices="tripinfo_3" vType="DEFAULT_VEHTYPE" speedFactor="0.94" vaporized=""/>
    <tripinfo id="26" depart="155.00" departLane="left1A1_0" departPos="5.10" departSpeed="0.00" departDelay="0.00" arrival="258.00" arrivalLane="B0bottom1_0" arrivalPos="286.40" arrivalSpeed="14.13" duration="103.00" routeLength="1179.77" waitingTime="8.00" waitingCount="1" stopTime="0.00" timeLoss="21.36" rerouteNo="0" devices="tripinfo_26" vType="DEFAULT_VEHTYPE" speedFactor="1.05" vaporized=""/>
    <tripinfo id="24" depart="147.00" departLane="right3D3_0" departPos="5.10" departSpeed="0.00" departDelay="0.00" arrival="280.00" arrivalLane="D1right1_0" arrivalPos="286.40" arrivalSpeed="12.36" duration="133.00" routeLength="1197.66" waitingTime="28.00" waitingCount="1" stopTime="0.00" timeLoss="40.39" rerouteNo="0" devices="tripinfo_24" vType="DEFAULT_VEHTYPE" speedFactor="0.95" vaporized=""/>
    <tripinfo id="30" depart="175.00" departLane="bottom1B0_0" departPos="5.10" departSpeed="0.00" departDelay="0.00" arrival="282.00" arrivalLane="D0right0_0" arrivalPos="286.40" arrivalSpeed="12.79" duration="107.00" routeLength="1179.77" waitingTime="3.00" waitingCount="2" stopTime="0.00" timeLoss="21.84" rerouteNo="0" devices="tripinfo_30" vType="DEFAULT_VEHTYPE" speedFactor="1.01" vaporized=""/>
    <tripinfo id="9" depart="52.00" departLane="right0D0_0" departPos="5.10" departSpeed="0.00" departDelay="0.00" arrival="289.00" arrivalLane="A2left2_0" arrivalPos="286.40" arrivalSpeed="13.96" duration="237.00" routeLength="2082.76" waitingTime="53.00" waitingCount="5" stopTime="0.00" timeLoss="91.36" rerouteNo="0" devices="tripinfo_9" vType="DEFAULT_VEHTYPE" speedFactor="1.04" vaporized=""/>
    <tripinfo id="36" depart="195.00" departLane="bottom1B0_0" departPos="5.10" departSpeed="0.00" departDelay="0.00" arrival="308.00" arrivalLane="D0right0_0" arrivalPos="286.40" arrivalSpeed="13.81" duration="113.00" routeLength="1179.77" waitingTime="9.00" waitingCount="1" stopTime="0.00" timeLoss="32.17" rerouteNo="0" devices="tripinfo_36" vType="DEFAULT_VEHTYPE" speedFactor="1.07" vaporized=""/>
    <tripinfo id="5" depart="20.00" departLane="right3D3_0" departPos="5.10" departSpeed="0.00" departDelay="0.00" arrival="309.00" arrivalLane="A2left2_0" arrivalPos="286.40" arrivalSpeed="14.48" duration="289.00" routeLength="1782.59" waitingTime="136.00" waitingCount="3" stopTime="0.00" timeLoss="166.78" rerouteNo="0" devices="tripinfo_5" vType="DEFAULT_VEHTYPE" speedFactor="1.06" vaporized=""/>
    <tripinfo id="11" depart="82.00" departLane="left3A3_0" departPos="5.10" departSpeed="0.00" departDelay="0.00" arrival="311.00" arrivalLane="D3top3_0" arrivalPos="286.40" arrivalSpeed="12.34" duration="229.00" routeLength="1498.06" waitingTime="78.00" waitingCount="3" stopTime="0.00" timeLoss="107.14" rerouteNo="0" devices="tripinfo_11" vType="DEFAULT_VEHTYPE" speedFactor="0.89" vaporized=""/>
    <tripinfo id="20" depart="133.00" departLane="left3A3_0" departPos="5.10" departSpeed="0.00" departDelay="0.00" arrival="311.00" arrivalLane="D3top3_1" arrivalPos="286.40" arrivalSpeed="12.52" duration="178.00" routeLength="1498.06" waitingTime="29.00" waitingCount="3" stopTime="0.00" timeLoss="67.52" rerouteNo="0" devices="tripinfo_20" vType="DEFAULT_VEHTYPE" speedFactor="0.98" vaporized=""/>
    <tripinfo id="2" depart="9.00" departLane="top1B3_0" departPos="5.10" departSpeed="0.00" departDelay="0.00" arrival="312.00" arrivalLane="A0bottom0_0" arrivalPos="286.40" arrivalSpeed="12.07" duration="303.00" routeLength="1782.72" waitingTime="123.00" waitingCount="4" stopTime="0.00" timeLoss="155.90" rerouteNo="0" devices="tripinfo_2" vType="DEFAULT_VEHTYPE" speedFactor="0.88" vaporized=""/>
    <tripinfo id="19" depart="132.00" departLane="bottom0A0_0" departPos="5.10" departSpeed="0.00" departDelay="1.00" arrival="323.00" arrivalLane="A3top0_0" arrivalPos="286.40" arrivalSpeed="11.23" duration="191.00" routeLength="1495.58" waitingTime="43.00" waitingCount="2" stopTime="0.00" timeLoss="64.36" rerouteNo="0" devices="tripinfo_19" vType="DEFAULT_VEHTYPE" speedFactor="0.85" vaporized=""/>
    <tripinfo id="38" depart="200.00" departLane="left2A2_0" departPos="5.10" departSpeed="0.00" departDelay="0.00" arrival="336.00" arrivalLane="D2right2_0" arrivalPos="286.40" arrivalSpeed="15.03" duration="136.00" routeLength="1495.58" waitingTime="15.00" waitingCount="3" stopTime="0.00" timeLoss="42.68" rerouteNo="0" devices="tripinfo_38" vType="DEFAULT_VEHTYPE" speedFactor="1.17" vaporized=""/>
    <tripinfo id="12" depart="88.00" departLane="top0A3_0" departPos="5.10" departSpeed="0.00" departDelay="0.00" arrival="338.00" arrivalLane="B0bottom1_0" arrivalPos="286.40" arrivalSpeed="15.20" duration="250.00" routeLength="1782.59" waitingTime="95.00" waitingCount="5" stopTime="0.00" timeLoss="131.77" rerouteNo="0" devices="tripinfo_12" vType="DEFAULT_VEHTYPE" speedFactor="1.10" vaporized=""/>
    <tripinfo id="10" depart="69.00" departLane="bottom2C0_0" departPos="5.10" departSpeed="0.00" departDelay="0.00" arrival="347.00" arrivalLane="C0bottom2_0" arrivalPos="286.40" arrivalSpeed="10.85" duration="278.00" routeLength="1748.75" waitingTime="96.00" waitingCount="4" stopTime="0.00" timeLoss="127.66" rerouteNo="0" devices="tripinfo_10" vType="DEFAULT_VEHTYPE" speedFactor="0.85" vaporized=""/>
    <tripinfo id="37" depart="199.00" departLane="bottom1B0_0" departPos="5.10" departSpeed="0.00" departDelay="0.00" arrival="347.00" arrivalLane="A2left2_0" arrivalPos="286.40" arrivalSpeed="12.50" duration="148.00" routeLength="1495.35" waitingTime="15.00" waitingCount="2" stopTime="0.00" timeLoss="37.50" rerouteNo="0" devices="tripinfo_37" vType="DEFAULT_VEHTYPE" speedFactor="0.98" vaporized=""/>
    <tripinfo id="16" depart="102.00" departLane="top2C3_0" departPos="5.10" departSpeed="0.00" departDelay="1.00" arrival="357.00" arrivalLane="D0right0_0" arrivalPos="286.40" arrivalSpeed="14.91" duration="255.00" routeLength="1795.52" waitingTime="106.00" waitingCount="4" stopTime="0.00" timeLoss="137.86" rerouteNo="0" devices="tripinfo_16" vType="DEFAULT_VEHTYPE" speedFactor="1.11" vaporized=""/>
    <tripinfo id="49" depart="247.00" departLane="bottom2C0_0" departPos="5.10" departSpeed="0.00" departDelay="0.00" arrival="358.00" arrivalLane="A0left0_0" arrivalPos="286.40" arrivalSpeed="13.64" duration="111.00" routeLength="1195.18" waitingTime="4.00" waitingCount="1" stopTime="0.00" timeLoss="28.22" rerouteNo="0" devices="tripinfo_49" vType="DEFAULT_VEHTYPE" speedFactor="1.05" vaporized=""/>
    <tripinfo id="58" depart="279.00" departLane="left1A1_0" departPos="5.10" departSpeed="0.00" departDelay="0.00" arrival="368.00" arrivalLane="A0left0_0" arrivalPos="286.40" arrivalSpeed="10.72" duration="89.00" routeLength="858.56" waitingTime="1.00" waitingCount="1" stopTime="0.00" timeLoss="14.54" rerouteNo="0" devices="tripinfo_58" vType="DEFAULT_VEHTYPE" speedFactor="0.86" vaporized=""/>
    <tripinfo id="21" depart="135.00" departLane="right3D3_0" departPos="5.10" departSpeed="0.00" departDelay="0.00" arrival="369.00" arrivalLane="D0right0_0" arrivalPos="286.40" arrivalSpeed="13.94" duration="234.00" routeLength="1497.83" waitingTime="94.00" waitingCount="3" stopTime="0.00" timeLoss="126.36" rerouteNo="0" devices="tripinfo_21" vType="DEFAULT_VEHTYPE" speedFactor="1.01" vaporized=""/>
    <tripinfo id="28" depart="161.00" departLane="right1D1_0" departPos="5.10" departSpeed="0.00" departDelay="0.00" arrival="384.00" arrivalLane="A2left2_0" arrivalPos="286.40" arrivalSpeed="13.00" duration="223.00" routeLength="1782.72" waitingTime="55.00" waitingCount="4" stopTime="0.00" timeLoss="88.21" rerouteNo="0" devices="tripinfo_28" vType="DEFAULT_VEHTYPE" speedFactor="0.96" vaporized=""/>
    <tripinfo id="52" depart="254.00" departLane="top3D3_0" departPos="5.10" departSpeed="0.00" departDelay="0.00" arrival="385.00" arrivalLane="D3right3_0" arrivalPos="286.40" arrivalSpeed="10.46" duration="131.00" routeLength="597.55" waitingTime="66.00" waitingCount="1" stopTime="0.00" timeLoss="76.94" rerouteNo="0" devices="tripinfo_52" vType="DEFAULT_VEHTYPE" speedFactor="0.81" vaporized=""/>
    <tripinfo id="46" depart="229.00" departLane="left1A1_0" departPos="5.10" departSpeed="0.00" departDelay="0.00" arrival="388.00" arrivalLane="A2left2_0" arrivalPos="286.40" arrivalSpeed="14.19" duration="159.00" routeLength="894.86" waitingTime="80.00" waitingCount="2" stopTime="0.00" timeLoss="98.15" rerouteNo="0" devices="tripinfo_46" vType="DEFAULT_VEHTYPE" speedFactor="1.09" vaporized=""/>
    <tripinfo id="57" depart="278.00" departLane="top3D3_0" departPos="5.10" departSpeed="0.00" departDelay="0.00" arrival="389.00" arrivalLane="D2right2_0" arrivalPos="286.40" arrivalSpeed="13.85" duration="111.00" routeLength="897.72" waitingTime="29.00" waitingCount="1" stopTime="0.00" timeLoss="46.17" rerouteNo="0" devices="tripinfo_57" vType="DEFAULT_VEHTYPE" speedFactor="1.01" vaporized=""/>
    <tripinfo id="63" depart="292.00" departLane="right0D0_0" departPos="5.10" departSpeed="0.00" departDelay="0.00" arrival="394.00" arrivalLane="D2right2_0" arrivalPos="286.40" arrivalSpeed="16.14" duration="102.00" routeLength="1161.43" waitingTime="6.00" waitingCount="2" stopTime="0.00" timeLoss="29.69" rerouteNo="0" devices="tripinfo_63" vType="DEFAULT_VEHTYPE" speedFactor="1.18" vaporized=""/>
    <tripinfo id="42" depart="216.00" departLane="bottom0A0_0" departPos="5.10" departSpeed="0.00" departDelay="0.00" arrival="406.00" arrivalLane="D0bottom3_0" arrivalPos="286.40" arrivalSpeed="13.06" duration="190.00" routeLength="1461.60" waitingTime="63.00" waitingCount="2" stopTime="0.00" timeLoss="83.23" rerouteNo="0" devices="tripinfo_42" vType="DEFAULT_VEHTYPE" speedFactor="1.00" vaporized=""/>
    <tripinfo id="70" depart="316.00" departLane="bottom1B0_0" departPos="5.10" departSpeed="0.00" departDelay="0.00" arrival="412.00" arrivalLane="D0bottom3_0" arrivalPos="286.40" arrivalSpeed="14.75" duration="96.00" routeLength="1161.43" waitingTime="1.00" waitingCount="1" stopTime="0.00" timeLoss="18.35" rerouteNo="0" devices="tripinfo_70" vType="DEFAULT_VEHTYPE" speedFactor="1.10" vaporized=""/>
    <tripinfo id="54" depart="263.00" departLane="top2C3_0" departPos="5.10" departSpeed="0.00" departDelay="0.00" arrival="419.00" arrivalLane="A1left1_0" arrivalPos="286.40" arrivalSpeed="13.55" duration="156.00" routeLength="1780.11" waitingTime="7.00" waitingCount="3" stopTime="0.00" timeLoss="32.65" rerouteNo="0" devices="tripinfo_54" vType="DEFAULT_VEHTYPE" speedFactor="1.05" vaporized=""/>
    <tripinfo id="40" depart="204.00" departLane="bottom2C0_0" departPos="5.10" departSpeed="0.00" departDelay="0.00" arrival="420.00" arrivalLane="D3right3_0" arrivalPos="286.40" arrivalSpeed="13.10" duration="216.00" routeLength="1780.11" waitingTime="47.00" waitingCount="4" stopTime="0.00" timeLoss="80.93" rerouteNo="0" devices="tripinfo_40" vType="DEFAULT_VEHTYPE" speedFactor="0.96" vaporized=""/>
    <tripinfo id="71" depart="318.00" departLane="bottom3D0_0" departPos="5.10" departSpeed="0.00" departDelay="0.00" arrival="427.00" arrivalLane="D1right1_0" arrivalPos="286.40" arrivalSpeed="13.15" duration="109.00" routeLength="876.90" waitingTime="29.00" waitingCount="2" stopTime="0.00" timeLoss="43.66" rerouteNo="0" devices="tripinfo_71" vType="DEFAULT_VEHTYPE" speedFactor="0.98" vaporized=""/>
    <tripinfo id="29" depart="173.00" departLane="right0D0_0" departPos="5.10" departSpeed="0.00" departDelay="0.00" arrival="430.00" arrivalLane="A2left2_0" arrivalPos="286.40" arrivalSpeed="13.33" duration="257.00" routeLength="2082.76" waitingTime="61.00" waitingCount="6" stopTime="0.00" timeLoss="104.56" rerouteNo="0" devices="tripinfo_29" vType="DEFAULT_VEHTYPE" speedFactor="0.99" vaporized=""/>
    <tripinfo id="32" depart="180.00" departLane="bottom1B0_0" departPos="5.10" departSpeed="0.00" departDelay="0.00" arrival="431.00" arrivalLane="B0bottom1_0" arrivalPos="286.40" arrivalSpeed="12.55" duration="251.00" routeLength="1748.75" waitingTime="87.00" waitingCount="3" stopTime="0.00" timeLoss="114.39" rerouteNo="0" devices="tripinfo_32" vType="DEFAULT_VEHTYPE" speedFactor="0.94" vaporized=""/>
    <tripinfo id="61" depart="286.00" departLane="bottom2C0_0" departPos="5.10" departSpeed="0.00" departDelay="0.00" arrival="438.00" arrivalLane="C3top2_0" arrivalPos="286.40" arrivalSpeed="13.60" duration="152.00" routeLength="1495.58" waitingTime="28.00" waitingCount="2" stopTime="0.00" timeLoss="48.33" rerouteNo="0" devices="tripinfo_61" vType="DEFAULT_VEHTYPE" speedFactor="1.04" vaporized=""/>
    <tripinfo id="66" depart="298.00" departLane="left1A1_0" departPos="5.10" departSpeed="0.00" departDelay="0.00" arrival="447.00" arrivalLane="C0bottom2_0" arrivalPos="286.40" arrivalSpeed="12.04" duration="149.00" routeLength="1479.94" waitingTime="5.00" waitingCount="2" stopTime="0.00" timeLoss="26.28" rerouteNo="0" devices="tripinfo_66" vType="DEFAULT_VEHTYPE" speedFactor="0.88" vaporized=""/>
    <tripinfo id="89" depart="396.00" departLane="bottom3D0_0" departPos="5.10" departSpeed="0.00" departDelay="0.00" arrival="450.00" arrivalLane="D0right0_0" arrivalPos="286.40" arrivalSpeed="11.66" duration="54.00" routeLength="576.73" waitingTime="0.00" waitingCount="0" stopTime="0.00" timeLoss="6.89" rerouteNo="0" devices="tripinfo_89" vType="DEFAULT_VEHTYPE" speedFactor="0.90" vaporized=""/>
    <tripinfo id="84" depart="379.00" departLane="right2D2_0" departPos="5.10" departSpeed="0.00" departDelay="0.00" arrival="455.00" arrivalLane="D3right3_0" arrivalPos="286.40" arrivalSpeed="14.28" duration="76.00" routeLength="858.56" waitingTime="2.00" waitingCount="2" stopTime="0.00" timeLoss="16.85" rerouteNo="0" devices="tripinfo_84" vType="DEFAULT_VEHTYPE" speedFactor="1.06" vaporized=""/>
    <tripinfo id="76" depart="344.00" departLane="left3A3_0" departPos="5.10" departSpeed="0.00" departDelay="0.00" arrival="460.00" arrivalLane="B3top1_0" arrivalPos="286.40" arrivalSpeed="13.07" duration="116.00" routeLength="897.72" waitingTime="32.00" waitingCount="2" stopTime="0.00" timeLoss="49.45" rerouteNo="0" devices="tripinfo_76" vType="DEFAULT_VEHTYPE" speedFactor="0.98" vaporized=""/>
    <tripinfo id="65" depart="293.00" departLane="top1B3_0" departPos="5.10" departSpeed="0.00" departDelay="0.00" arrival="472.00" arrivalLane="D2right2_0" arrivalPos="286.40" arrivalSpeed="13.33" duration="179.00" routeLength="1495.35" waitingTime="49.00" waitingCount="2" stopTime="0.00" timeLoss="70.01" rerouteNo="0" devices="tripinfo_65" vType="DEFAULT_VEHTYPE" speedFactor="1.00" vaporized=""/>
    <tripinfo id="68" depart="299.00" departLane="bottom2C0_0" departPos="5.10" departSpeed="0.00" departDelay="0.00" arrival="480.00" arrivalLane="A0bottom0_0" arrivalPos="286.40" arrivalSpeed="12.52" duration="181.00" routeLength="1197.66" waitingTime="68.00" waitingCount="3" stopTime="0.00" timeLoss="89.28" rerouteNo="0" devices="tripinfo_68" vType="DEFAULT_VEHTYPE" speedFactor="0.95" vaporized=""/>
    <tripinfo id="86" depart="387.00" departLane="bottom1B0_0" departPos="5.10" departSpeed="0.00" departDelay="0.00" arrival="482.00" arrivalLane="A0bottom0_0" arrivalPos="286.40" arrivalSpeed="12.67" duration="95.00" routeLength="894.86" waitingTime="13.00" waitingCount="2" stopTime="0.00" timeLoss="28.19" rerouteNo="0" devices="tripinfo_86" vType="DEFAULT_VEHTYPE" speedFactor="0.99" vaporized=""/>
    <tripinfo id="62" depart="287.00" departLane="top2C3_0" departPos="5.10" departSpeed="0.00" departDelay="0.00" arrival="490.00" arrivalLane="D1right1_1" arrivalPos="286.40" arrivalSpeed="14.38" duration="203.00" routeLength="1495.35" waitingTime="70.00" waitingCount="4" stopTime="0.00" timeLoss="98.80" rerouteNo="0" devices="tripinfo_62" vType="DEFAULT_VEHTYPE" speedFactor="1.04" vaporized=""/>
    <tripinfo id="41" depart="215.00" departLane="bottom1B0_0" departPos="5.10" departSpeed="0.00" departDelay="0.00" arrival="492.00" arrivalLane="D1right1_0" arrivalPos="286.40" arrivalSpeed="11.32" duration="277.00" routeLength="1479.94" waitingTime="124.00" waitingCount="4" stopTime="0.00" timeLoss="155.22" rerouteNo="0" devices="tripinfo_41" vType="DEFAULT_VEHTYPE" speedFactor="0.88" vaporized=""/>
    <tripinfo id="35" depart="186.00" departLane="left1A1_0" departPos="5.10" departSpeed="0.00" departDelay="0.00" arrival="499.00" arrivalLane="A3left3_0" arrivalPos="286.40" arrivalSpeed="13.72" duration="313.00" routeLength="1197.66" waitingTime="210.00" waitingCount="2" stopTime="0.00" timeLoss="227.84" rerouteNo="0" devices="tripinfo_35" vType="DEFAULT_VEHTYPE" speedFactor="1.03" vaporized=""/>
    <tripinfo id="15" depart="100.00" departLane="right3D3_0" departPos="5.10" departSpeed="0.00" departDelay="0.00" arrival="501.00" arrivalLane="A0left0_0" arrivalPos="286.40" arrivalSpeed="12.06" duration="401.00" routeLength="2380.22" waitingTime="170.00" waitingCount="6" stopTime="0.00" timeLoss="218.92" rerouteNo="0" devices="tripinfo_15" vType="DEFAULT_VEHTYPE" speedFactor="0.95" vaporized=""/>
    <tripinfo id="51" depart="251.00" departLane="right2D2_0" departPos="5.10" departSpeed="0.00" departDelay="0.00" arrival="502.00" arrivalLane="B0bottom1_0" arrivalPos="286.40" arrivalSpeed="10.93" duration="251.00" routeLength="1795.52" waitingTime="67.00" waitingCount="2" stopTime="0.00" timeLoss="96.50" rerouteNo="0" devices="tripinfo_51" vType="DEFAULT_VEHTYPE" speedFactor="0.84" vaporized=""/>
    <tripinfo id="93" depart="417.00" departLane="top0A3_0" departPos="5.10" departSpeed="0.00" departDelay="2.00" arrival="508.00" arrivalLane="A2left2_0" arrivalPos="286.40" arrivalSpeed="12.52" duration="91.00" routeLength="876.90" waitingTime="8.00" waitingCount="1" stopTime="0.00" timeLoss="24.55" rerouteNo="0" devices="tripinfo_93" vType="DEFAULT_VEHTYPE" speedFactor="0.96" vaporized=""/>
    <tripinfo id="25" depart="153.00" departLane="top0A3_0" departPos="5.10" departSpeed="0.00" departDelay="0.00" arrival="509.00" arrivalLane="A3top0_0" arrivalPos="286.40" arrivalSpeed="14.24" duration="356.00" routeLength="1745.91" waitingTime="196.00" waitingCount="5" stopTime="0.00" timeLoss="232.03" rerouteNo="0" devices="tripinfo_25" vType="DEFAULT_VEHTYPE" speedFactor="1.03" vaporized=""/>
    <tripinfo id="43" depart="220.00" departLane="left2A2_0" departPos="5.10" departSpeed="0.00" departDelay="0.00" arrival="511.00" arrivalLane="A3top0_0" arrivalPos="286.40" arrivalSpeed="13.54" duration="291.00" routeLength="895.01" waitingTime="212.00" waitingCount="2" stopTime="0.00" timeLoss="228.18" rerouteNo="0" devices="tripinfo_43" vType="DEFAULT_VEHTYPE" speedFactor="1.04" vaporized=""/>
    <tripinfo id="39" depart="203.00" departLane="bottom1B0_0" departPos="5.10" departSpeed="0.00" departDelay="0.00" arrival="513.00" arrivalLane="D3top3_0" arrivalPos="286.40" arrivalSpeed="12.66" duration="310.00" routeLength="2082.76" waitingTime="124.00" waitingCount="3" stopTime="0.00" timeLoss="156.12" rerouteNo="0" devices="tripinfo_39" vType="DEFAULT_VEHTYPE" speedFactor="0.98" vaporized=""/>
    <tripinfo id="47" depart="233.00" departLane="left0A0_0" departPos="5.10" departSpeed="0.00" departDelay="0.00" arrival="516.00" arrivalLane="A3top0_0" arrivalPos="286.40" arrivalSpeed="11.77" duration="283.00" routeLength="1495.35" waitingTime="140.00" waitingCount="3" stopTime="0.00" timeLoss="166.17" rerouteNo="0" devices="tripinfo_47" vType="DEFAULT_VEHTYPE" speedFactor="0.93" vaporized=""/>
    <tripinfo id="60" depart="283.00" departLane="right0D0_0" departPos="5.10" departSpeed="0.00" departDelay="0.00" arrival="519.00" arrivalLane="A1left1_1" arrivalPos="286.40" arrivalSpeed="14.19" duration="236.00" routeLength="1782.72" waitingTime="82.00" waitingCount="4" stopTime="0.00" timeLoss="117.41" rerouteNo="0" devices="tripinfo_60" vType="DEFAULT_VEHTYPE" speedFactor="1.09" vaporized=""/>
    <tripinfo id="45" depart="223.00" departLane="bottom2C0_0" departPos="5.10" departSpeed="0.00" departDelay="0.00" arrival="522.00" arrivalLane="A1left1_0" arrivalPos="286.40" arrivalSpeed="11.60" duration="299.00" routeLength="1495.35" waitingTime="152.00" waitingCount="3" stopTime="0.00" timeLoss="174.12" rerouteNo="0" devices="tripinfo_45" vType="DEFAULT_VEHTYPE" speedFactor="0.87" vaporized=""/>
    <tripinfo id="55" depart="270.00" departLane="bottom3D0_0" departPos="5.10" departSpeed="0.00" departDelay="0.00" arrival="522.00" arrivalLane="A1left1_1" arrivalPos="286.40" arrivalSpeed="15.17" duration="252.00" routeLength="1795.52" waitingTime="101.00" waitingCount="3" stopTime="0.00" timeLoss="132.66" rerouteNo="0" devices="tripinfo_55" vType="DEFAULT_VEHTYPE" speedFactor="1.09" vaporized=""/>
    <tripinfo id="53" depart="257.00" departLane="right1D1_0" departPos="5.10" departSpeed="0.00" departDelay="0.00" arrival="528.00" arrivalLane="A2left2_0" arrivalPos="286.40" arrivalSpeed="14.75" duration="271.00" routeLength="1782.72" waitingTime="119.00" waitingCount="4" stopTime="0.00" timeLoss="149.34" rerouteNo="0" devices="tripinfo_53" vType="DEFAULT_VEHTYPE" speedFactor="1.07" vaporized=""/>
    <tripinfo id="48" depart="245.00" departLane="top1B3_0" departPos="5.10" departSpeed="0.00" departDelay="0.00" arrival="531.00" arrivalLane="A2left2_0" arrivalPos="286.40" arrivalSpeed="13.93" duration="286.00" routeLength="1179.77" waitingTime="179.00" waitingCount="3" stopTime="0.00" timeLoss="201.48" rerouteNo="0" devices="tripinfo_48" vType="DEFAULT_VEHTYPE" speedFactor="1.02" vaporized=""/>
    <tripinfo id="31" depart="177.00" departLane="bottom2C0_0" departPos="5.10" departSpeed="0.00" departDelay="0.00" arrival="533.00" arrivalLane="A2left2_0" arrivalPos="286.40" arrivalSpeed="13.16" duration="356.00" routeLength="1795.52" waitingTime="190.00" waitingCount="5" stopTime="0.00" timeLoss="229.06" rerouteNo="0" devices="tripinfo_31" vType="DEFAULT_VEHTYPE" speedFactor="1.03" vaporized=""/>
    <tripinfo id="82" depart="372.00" departLane="left3A3_0" departPos="5.10" departSpeed="0.00" departDelay="0.00" arrival="535.00" arrivalLane="D3right3_0" arrivalPos="286.40" arrivalSpeed="12.54" duration="163.00" routeLength="1495.58" waitingTime="29.00" waitingCount="2" stopTime="0.00" timeLoss="48.06" rerouteNo="0" devices="tripinfo_82" vType="DEFAULT_VEHTYPE" speedFactor="0.94" vaporized=""/>
    <tripinfo id="67" depart="298.00" departLane="top1B3_0" departPos="5.10" departSpeed="0.00" departDelay="0.00" arrival="541.00" arrivalLane="D3top3_0" arrivalPos="286.40" arrivalSpeed="11.76" duration="243.00" routeLength="1197.66" waitingTime="125.00" waitingCount="3" stopTime="0.00" timeLoss="148.49" rerouteNo="0" devices="tripinfo_67" vType="DEFAULT_VEHTYPE" speedFactor="0.93" vaporized=""/>
    <tripinfo id="111" depart="456.00" departLane="bottom2C0_0" departPos="5.10" departSpeed="0.00" departDelay="0.00" arrival="542.00" arrivalLane="D0right0_0" arrivalPos="286.40" arrivalSpeed="11.78" duration="86.00" routeLength="879.60" waitingTime="1.00" waitingCount="1" stopTime="0.00" timeLoss="11.22" rerouteNo="0" devices="tripinfo_111" vType="DEFAULT_VEHTYPE" speedFactor="0.86" vaporized=""/>
    <tripinfo id="98" depart="425.00" departLane="left0A0_0" departPos="5.10" departSpeed="0.00" departDelay="0.00" arrival="555.00" arrivalLane="B0bottom1_0" arrivalPos="286.40" arrivalSpeed="12.01" duration="130.00" routeLength="876.90" waitingTime="41.00" waitingCount="2" stopTime="0.00" timeLoss="56.34" rerouteNo="0" devices="tripinfo_98" vType="DEFAULT_VEHTYPE" speedFactor="0.87" vaporized=""/>