<?xml version="1.0" encoding="UTF-8"?>

<!-- generated on 12/10/21 14:09:53 by Eclipse SUMO sumo Version 1.7.0
<configuration xmlns:xsi="http://www.w3.org/2001/XMLSchema-instance" xsi:noNamespaceSchemaLocation="http://sumo.dlr.de/xsd/sumoConfiguration.xsd">

    <input>
        <net-file value="C:\Users\longs\Desktop\RESCO-main\environments\grid4x4\grid4x4.net.xml"/>
        <route-files value="C:\Users\longs\Desktop\RESCO-main\environments\grid4x4\grid4x4_66.rou.xml"/>
    </input>

    <output>
        <tripinfo-output value="C:\Users\longs\Desktop\RESCO-main\logs\STOCHASTIC-tr1-grid4x4-0-mplight-wait\tripinfo_66.xml"/>
        <tripinfo-output.write-unfinished value="true"/>
    </output>

    <processing>
        <time-to-teleport value="-1"/>
    </processing>

    <report>
        <no-warnings value="true"/>
        <no-step-log value="true"/>
    </report>

    <traci_server>
        <remote-port value="59750"/>
    </traci_server>

    <random_number>
        <random value="true"/>
    </random_number>

</configuration>
-->

<tripinfos xmlns:xsi="http://www.w3.org/2001/XMLSchema-instance" xsi:noNamespaceSchemaLocation="http://sumo.dlr.de/xsd/tripinfo_file.xsd">
    <tripinfo id="4" depart="11.00" departLane="right0D0_0" departPos="5.10" departSpeed="0.00" departDelay="0.00" arrival="87.00" arrivalLane="D1right1_0" arrivalPos="286.40" arrivalSpeed="14.99" duration="76.00" routeLength="858.56" waitingTime="2.00" waitingCount="2" stopTime="0.00" timeLoss="20.85" rerouteNo="0" devices="tripinfo_4" vType="DEFAULT_VEHTYPE" speedFactor="1.15" vaporized=""/>
    <tripinfo id="10" depart="33.00" departLane="left3A3_0" departPos="5.10" departSpeed="0.00" departDelay="0.00" arrival="134.00" arrivalLane="A0bottom0_0" arrivalPos="286.40" arrivalSpeed="16.26" duration="101.00" routeLength="1479.94" waitingTime="0.00" waitingCount="0" stopTime="0.00" timeLoss="10.59" rerouteNo="0" devices="tripinfo_10" vType="DEFAULT_VEHTYPE" speedFactor="1.19" vaporized=""/>
    <tripinfo id="23" depart="92.00" departLane="right3D3_0" departPos="5.10" departSpeed="0.00" departDelay="0.00" arrival="146.00" arrivalLane="D3top3_0" arrivalPos="286.40" arrivalSpeed="11.92" duration="54.00" routeLength="576.73" waitingTime="0.00" waitingCount="0" stopTime="0.00" timeLoss="6.65" rerouteNo="0" devices="tripinfo_23" vType="DEFAULT_VEHTYPE" speedFactor="0.91" vaporized=""/>
    <tripinfo id="8" depart="28.00" departLane="right3D3_0" departPos="5.10" departSpeed="0.00" departDelay="0.00" arrival="174.00" arrivalLane="A3top0_0" arrivalPos="286.40" arrivalSpeed="14.86" duration="146.00" routeLength="1477.24" waitingTime="16.00" waitingCount="4" stopTime="0.00" timeLoss="47.54" rerouteNo="0" devices="tripinfo_8" vType="DEFAULT_VEHTYPE" speedFactor="1.09" vaporized=""/>
    <tripinfo id="5" depart="15.00" departLane="left0A0_0" departPos="5.10" departSpeed="0.00" departDelay="0.00" arrival="176.00" arrivalLane="C0bottom2_0" arrivalPos="286.40" arrivalSpeed="12.67" duration="161.00" routeLength="1177.07" waitingTime="50.00" waitingCount="2" stopTime="0.00" timeLoss="69.74" rerouteNo="0" devices="tripinfo_5" vType="DEFAULT_VEHTYPE" speedFactor="0.94" vaporized=""/>
    <tripinfo id="17" depart="62.00" departLane="bottom0A0_0" departPos="5.10" departSpeed="0.00" departDelay="0.00" arrival="188.00" arrivalLane="C0bottom2_0" arrivalPos="286.40" arrivalSpeed="11.20" duration="126.00" routeLength="1161.43" waitingTime="4.00" waitingCount="2" stopTime="0.00" timeLoss="23.40" rerouteNo="0" devices="tripinfo_17" vType="DEFAULT_VEHTYPE" speedFactor="0.83" vaporized=""/>
    <tripinfo id="19" depart="76.00" departLane="right3D3_0" departPos="5.10" departSpeed="0.00" departDelay="0.00" arrival="190.00" arrivalLane="D2right2_0" arrivalPos="286.40" arrivalSpeed="12.89" duration="114.00" routeLength="894.86" waitingTime="30.00" waitingCount="2" stopTime="0.00" timeLoss="47.16" rerouteNo="0" devices="tripinfo_19" vType="DEFAULT_VEHTYPE" speedFactor="0.99" vaporized=""/>
    <tripinfo id="32" depart="141.00" departLane="right1D1_0" departPos="5.10" departSpeed="0.00" departDelay="0.00" arrival="214.00" arrivalLane="D2right2_0" arrivalPos="286.40" arrivalSpeed="14.67" duration="73.00" routeLength="858.56" waitingTime="1.00" waitingCount="1" stopTime="0.00" timeLoss="13.75" rerouteNo="0" devices="tripinfo_32" vType="DEFAULT_VEHTYPE" speedFactor="1.07" vaporized=""/>
    <tripinfo id="27" depart="133.00" departLane="left2A2_0" departPos="5.10" departSpeed="0.00" departDelay="0.00" arrival="215.00" arrivalLane="A1left1_0" arrivalPos="286.40" arrivalSpeed="12.62" duration="82.00" routeLength="858.56" waitingTime="1.00" waitingCount="1" stopTime="0.00" timeLoss="16.02" rerouteNo="0" devices="tripinfo_27" vType="DEFAULT_VEHTYPE" speedFactor="0.97" vaporized=""/>
    <tripinfo id="1" depart="6.00" departLane="bottom3D0_0" departPos="5.10" departSpeed="0.00" departDelay="0.00" arrival="218.00" arrivalLane="A1left1_0" arrivalPos="286.40" arrivalSpeed="15.01" duration="212.00" routeLength="1795.52" waitingTime="66.00" waitingCount="2" stopTime="0.00" timeLoss="91.85" rerouteNo="0" devices="tripinfo_1" vType="DEFAULT_VEHTYPE" speedFactor="1.09" vaporized=""/>
    <tripinfo id="31" depart="140.00" departLane="bottom2C0_0" departPos="5.10" departSpeed="0.00" departDelay="0.00" arrival="220.00" arrivalLane="D0bottom3_0" arrivalPos="286.40" arrivalSpeed="13.24" duration="80.00" routeLength="858.56" waitingTime="2.00" waitingCount="2" stopTime="0.00" timeLoss="16.76" rerouteNo="0" devices="tripinfo_31" vType="DEFAULT_VEHTYPE" speedFactor="1.00" vaporized=""/>
    <tripinfo id="20" depart="77.00" departLane="top2C3_0" departPos="5.10" departSpeed="0.00" departDelay="0.00" arrival="224.00" arrivalLane="D3top3_0" arrivalPos="286.40" arrivalSpeed="17.80" duration="147.00" routeLength="894.86" waitingTime="80.00" waitingCount="1" stopTime="0.00" timeLoss="95.27" rerouteNo="0" devices="tripinfo_20" vType="DEFAULT_VEHTYPE" speedFactor="1.28" vaporized=""/>
    <tripinfo id="11" depart="36.00" departLane="right0D0_0" departPos="5.10" departSpeed="0.00" departDelay="0.00" arrival="225.00" arrivalLane="A1left1_0" arrivalPos="286.40" arrivalSpeed="11.78" duration="189.00" routeLength="1782.72" waitingTime="8.00" waitingCount="3" stopTime="0.00" timeLoss="38.05" rerouteNo="0" devices="tripinfo_11" vType="DEFAULT_VEHTYPE" speedFactor="0.86" vaporized=""/>
    <tripinfo id="28" depart="137.00" departLane="top0A3_0" departPos="5.10" departSpeed="0.00" departDelay="0.00" arrival="226.00" arrivalLane="B3top1_0" arrivalPos="286.40" arrivalSpeed="16.19" duration="89.00" routeLength="894.86" waitingTime="22.00" waitingCount="1" stopTime="0.00" timeLoss="34.52" rerouteNo="0" devices="tripinfo_28" vType="DEFAULT_VEHTYPE" speedFactor="1.22" vaporized=""/>
    <tripinfo id="7" depart="26.00" departLane="right2D2_0" departPos="5.10" departSpeed="0.00" departDelay="0.00" arrival="228.00" arrivalLane="A3top0_0" arrivalPos="286.40" arrivalSpeed="14.23" duration="202.00" routeLength="1780.11" waitingTime="50.00" waitingCount="3" stopTime="0.00" timeLoss="79.12" rerouteNo="0" devices="tripinfo_7" vType="DEFAULT_VEHTYPE" speedFactor="1.05" vaporized=""/>
    <tripinfo id="6" depart="23.00" departLane="bottom3D0_0" departPos="5.10" departSpeed="0.00" departDelay="0.00" arrival="238.00" arrivalLane="D0bottom3_0" arrivalPos="286.40" arrivalSpeed="14.97" duration="215.00" routeLength="1745.91" waitingTime="55.00" waitingCount="5" stopTime="0.00" timeLoss="96.01" rerouteNo="0" devices="tripinfo_6" vType="DEFAULT_VEHTYPE" speedFactor="1.08" vaporized=""/>
    <tripinfo id="41" depart="172.00" departLane="right0D0_0" departPos="5.10" departSpeed="0.00" departDelay="0.00" arrival="248.00" arrivalLane="D1right1_0" arrivalPos="286.40" arrivalSpeed="13.22" duration="76.00" routeLength="858.56" waitingTime="1.00" waitingCount="1" stopTime="0.00" timeLoss="14.92" rerouteNo="0" devices="tripinfo_41" vType="DEFAULT_VEHTYPE" speedFactor="1.04" vaporized=""/>
    <tripinfo id="34" depart="147.00" departLane="bottom0A0_0" departPos="5.10" departSpeed="0.00" departDelay="0.00" arrival="263.00" arrivalLane="A0left0_0" arrivalPos="286.40" arrivalSpeed="10.96" duration="116.00" routeLength="597.55" waitingTime="57.00" waitingCount="1" stopTime="0.00" timeLoss="66.20" rerouteNo="0" devices="tripinfo_34" vType="DEFAULT_VEHTYPE" speedFactor="0.88" vaporized=""/>
    <tripinfo id="24" depart="99.00" departLane="left3A3_0" departPos="5.10" departSpeed="0.00" departDelay="0.00" arrival="276.00" arrivalLane="D2right2_0" arrivalPos="286.40" arrivalSpeed="16.87" duration="177.00" routeLength="1782.72" waitingTime="41.00" waitingCount="3" stopTime="0.00" timeLoss="70.39" rerouteNo="0" devices="tripinfo_24" vType="DEFAULT_VEHTYPE" speedFactor="1.22" vaporized=""/>
    <tripinfo id="2" depart="8.00" departLane="bottom1B0_0" departPos="5.10" departSpeed="0.00" departDelay="0.00" arrival="279.00" arrivalLane="A3left3_0" arrivalPos="286.40" arrivalSpeed="13.68" duration="271.00" routeLength="1795.52" waitingTime="115.00" waitingCount="3" stopTime="0.00" timeLoss="142.63" rerouteNo="0" devices="tripinfo_2" vType="DEFAULT_VEHTYPE" speedFactor="1.01" vaporized=""/>
    <tripinfo id="9" depart="30.00" departLane="bottom1B0_0" departPos="5.10" departSpeed="0.00" departDelay="0.00" arrival="282.00" arrivalLane="A3left3_0" arrivalPos="286.40" arrivalSpeed="11.98" duration="252.00" routeLength="1795.52" waitingTime="82.00" waitingCount="4" stopTime="0.00" timeLoss="116.13" rerouteNo="0" devices="tripinfo_9" vType="DEFAULT_VEHTYPE" speedFactor="0.96" vaporized=""/>
    <tripinfo id="37" depart="161.00" departLane="left0A0_0" departPos="5.10" departSpeed="0.00" departDelay="0.00" arrival="286.00" arrivalLane="A2left2_0" arrivalPos="286.40" arrivalSpeed="14.93" duration="125.00" routeLength="1197.66" waitingTime="37.00" waitingCount="1" stopTime="0.00" timeLoss="49.74" rerouteNo="0" devices="tripinfo_37" vType="DEFAULT_VEHTYPE" speedFactor="1.17" vaporized=""/>
    <tripinfo id="0" depart="6.00" departLane="right1D1_0" departPos="5.10" departSpeed="0.00" departDelay="0.00" arrival="288.00" arrivalLane="B0bottom1_0" arrivalPos="286.40" arrivalSpeed="14.52" duration="282.00" routeLength="1495.35" waitingTime="153.00" waitingCount="2" stopTime="0.00" timeLoss="180.56" rerouteNo="0" devices="tripinfo_0" vType="DEFAULT_VEHTYPE" speedFactor="1.07" vaporized=""/>
    <tripinfo id="35" depart="152.00" departLane="bottom3D0_0" departPos="5.10" departSpeed="0.00" departDelay="0.00" arrival="305.00" arrivalLane="D2right2_0" arrivalPos="286.40" arrivalSpeed="13.36" duration="153.00" routeLength="1177.07" waitingTime="48.00" waitingCount="3" stopTime="0.00" timeLoss="69.48" rerouteNo="0" devices="tripinfo_35" vType="DEFAULT_VEHTYPE" speedFactor="1.02" vaporized=""/>
    <tripinfo id="49" depart="216.00" departLane="top1B3_0" departPos="5.10" departSpeed="0.00" departDelay="0.00" arrival="308.00" arrivalLane="A3left3_0" arrivalPos="286.40" arrivalSpeed="11.19" duration="92.00" routeLength="879.60" waitingTime="1.00" waitingCount="1" stopTime="0.00" timeLoss="13.66" rerouteNo="0" devices="tripinfo_49" vType="DEFAULT_VEHTYPE" speedFactor="0.82" vaporized=""/>
    <tripinfo id="13" depart="47.00" departLane="right1D1_0" departPos="5.10" departSpeed="0.00" departDelay="0.00" arrival="311.00" arrivalLane="B3top1_0" arrivalPos="286.40" arrivalSpeed="12.04" duration="264.00" routeLength="1780.11" waitingTime="92.00" waitingCount="3" stopTime="0.00" timeLoss="127.22" rerouteNo="0" devices="tripinfo_13" vType="DEFAULT_VEHTYPE" speedFactor="0.94" vaporized=""/>
    <tripinfo id="16" depart="62.00" departLane="top3D3_0" departPos="5.10" departSpeed="0.00" departDelay="0.00" arrival="313.00" arrivalLane="A2left2_0" arrivalPos="286.40" arrivalSpeed="11.64" duration="251.00" routeLength="1780.11" waitingTime="63.00" waitingCount="4" stopTime="0.00" timeLoss="97.79" rerouteNo="0" devices="tripinfo_16" vType="DEFAULT_VEHTYPE" speedFactor="0.84" vaporized=""/>
    <tripinfo id="3" depart="8.00" departLane="right2D2_0" departPos="5.10" departSpeed="0.00" departDelay="0.00" arrival="318.00" arrivalLane="A0left0_0" arrivalPos="286.40" arrivalSpeed="13.58" duration="310.00" routeLength="2080.05" waitingTime="121.00" waitingCount="6" stopTime="0.00" timeLoss="165.16" rerouteNo="0" devices="tripinfo_3" vType="DEFAULT_VEHTYPE" speedFactor="1.04" vaporized=""/>
    <tripinfo id="26" depart="131.00" departLane="left1A1_0" departPos="5.10" departSpeed="0.00" departDelay="0.00" arrival="338.00" arrivalLane="C0bottom2_0" arrivalPos="286.40" arrivalSpeed="13.79" duration="207.00" routeLength="1479.94" waitingTime="86.00" waitingCount="2" stopTime="0.00" timeLoss="107.10" rerouteNo="0" devices="tripinfo_26" vType="DEFAULT_VEHTYPE" speedFactor="1.07" vaporized=""/>
    <tripinfo id="14" depart="49.00" departLane="right2D2_0" departPos="5.10" departSpeed="0.00" departDelay="0.00" arrival="345.00" arrivalLane="C0bottom2_0" arrivalPos="286.40" arrivalSpeed="11.77" duration="296.00" routeLength="1495.35" waitingTime="146.00" waitingCount="3" stopTime="0.00" timeLoss="172.63" rerouteNo="0" devices="tripinfo_14" vType="DEFAULT_VEHTYPE" speedFactor="0.88" vaporized=""/>
    <tripinfo id="46" depart="195.00" departLane="right1D1_0" departPos="5.10" departSpeed="0.00" departDelay="0.00" arrival="345.00" arrivalLane="C0bottom2_1" arrivalPos="286.40" arrivalSpeed="13.18" duration="150.00" routeLength="1195.18" waitingTime="40.00" waitingCount="2" stopTime="0.00" timeLoss="59.88" rerouteNo="0" devices="tripinfo_46" vType="DEFAULT_VEHTYPE" speedFactor="0.97" vaporized=""/>
    <tripinfo id="12" depart="39.00" departLane="left3A3_0" departPos="5.10" departSpeed="0.00" departDelay="0.00" arrival="347.00" arrivalLane="D0bottom3_0" arrivalPos="286.40" arrivalSpeed="14.55" duration="308.00" routeLength="2380.45" waitingTime="111.00" waitingCount="5" stopTime="0.00" timeLoss="155.06" rerouteNo="0" devices="tripinfo_12" vType="DEFAULT_VEHTYPE" speedFactor="1.13" vaporized=""/>
    <tripinfo id="25" depart="109.00" departLane="right3D3_0" departPos="5.10" departSpeed="0.00" departDelay="0.00" arrival="350.00" arrivalLane="B0bottom1_1" arrivalPos="286.40" arrivalSpeed="14.59" duration="241.00" routeLength="2095.69" waitingTime="64.00" waitingCount="4" stopTime="0.00" timeLoss="104.92" rerouteNo="0" devices="tripinfo_25" vType="DEFAULT_VEHTYPE" speedFactor="1.12" vaporized=""/>
    <tripinfo id="30" depart="140.00" departLane="right2D2_0" departPos="5.10" departSpeed="0.00" departDelay="0.00" arrival="353.00" arrivalLane="B0bottom1_0" arrivalPos="286.40" arrivalSpeed="10.94" duration="213.00" routeLength="1795.52" waitingTime="33.00" waitingCount="3" stopTime="0.00" timeLoss="62.38" rerouteNo="0" devices="tripinfo_30" vType="DEFAULT_VEHTYPE" speedFactor="0.86" vaporized=""/>
    <tripinfo id="48" depart="204.00" departLane="top0A3_0" departPos="5.10" departSpeed="0.00" departDelay="0.00" arrival="362.00" arrivalLane="C3top2_0" arrivalPos="286.40" arrivalSpeed="11.47" duration="158.00" routeLength="1197.66" waitingTime="38.00" waitingCount="2" stopTime="0.00" timeLoss="62.65" rerouteNo="0" devices="tripinfo_48" vType="DEFAULT_VEHTYPE" speedFactor="0.92" vaporized=""/>
    <tripinfo id="15" depart="57.00" departLane="bottom3D0_0" departPos="5.10" departSpeed="0.00" departDelay="0.00" arrival="369.00" arrivalLane="D3top3_1" arrivalPos="286.40" arrivalSpeed="15.94" duration="312.00" routeLength="1495.58" waitingTime="187.00" waitingCount="3" stopTime="0.00" timeLoss="218.16" rerouteNo="0" devices="tripinfo_15" vType="DEFAULT_VEHTYPE" speedFactor="1.15" vaporized=""/>
    <tripinfo id="18" depart="73.00" departLane="right1D1_0" departPos="5.10" departSpeed="0.00" departDelay="0.00" arrival="369.00" arrivalLane="D3top3_0" arrivalPos="286.40" arrivalSpeed="12.90" duration="296.00" routeLength="1179.77" waitingTime="187.00" waitingCount="3" stopTime="0.00" timeLoss="211.60" rerouteNo="0" devices="tripinfo_18" vType="DEFAULT_VEHTYPE" speedFactor="1.02" vaporized=""/>
    <tripinfo id="64" depart="295.00" departLane="right2D2_0" departPos="5.10" departSpeed="0.00" departDelay="0.00" arrival="369.00" arrivalLane="D3right3_0" arrivalPos="286.40" arrivalSpeed="13.60" duration="74.00" routeLength="858.56" waitingTime="1.00" waitingCount="1" stopTime="0.00" timeLoss="13.44" rerouteNo="0" devices="tripinfo_64" vType="DEFAULT_VEHTYPE" speedFactor="1.05" vaporized=""/>
    <tripinfo id="57" depart="241.00" departLane="top1B3_0" departPos="5.10" departSpeed="0.00" departDelay="0.00" arrival="370.00" arrivalLane="A2left2_0" arrivalPos="286.40" arrivalSpeed="12.33" duration="129.00" routeLength="1179.77" waitingTime="18.00" waitingCount="2" stopTime="0.00" timeLoss="40.22" rerouteNo="0" devices="tripinfo_57" vType="DEFAULT_VEHTYPE" speedFactor="0.97" vaporized=""/>
    <tripinfo id="50" depart="221.00" departLane="top2C3_0" departPos="5.10" departSpeed="0.00" departDelay="0.00" arrival="379.00" arrivalLane="A3left3_0" arrivalPos="286.40" arrivalSpeed="13.93" duration="158.00" routeLength="1179.77" waitingTime="56.00" waitingCount="2" stopTime="0.00" timeLoss="72.71" rerouteNo="0" devices="tripinfo_50" vType="DEFAULT_VEHTYPE" speedFactor="1.01" vaporized=""/>
    <tripinfo id="22" depart="81.00" departLane="top1B3_0" departPos="5.10" departSpeed="0.00" departDelay="0.00" arrival="382.00" arrivalLane="D1right1_0" arrivalPos="286.40" arrivalSpeed="12.36" duration="301.00" routeLength="1795.52" waitingTime="125.00" waitingCount="2" stopTime="0.00" timeLoss="156.71" rerouteNo="0" devices="tripinfo_22" vType="DEFAULT_VEHTYPE" speedFactor="0.90" vaporized=""/>
    <tripinfo id="36" depart="157.00" departLane="left2A2_0" departPos="5.10" departSpeed="0.00" departDelay="0.00" arrival="383.00" arrivalLane="D1right1_1" arrivalPos="286.40" arrivalSpeed="12.92" duration="226.00" routeLength="1782.72" waitingTime="62.00" waitingCount="2" stopTime="0.00" timeLoss="86.79" rerouteNo="0" devices="tripinfo_36" vType="DEFAULT_VEHTYPE" speedFactor="0.94" vaporized=""/>
    <tripinfo id="47" depart="196.00" departLane="bottom3D0_0" departPos="5.10" departSpeed="0.00" departDelay="0.00" arrival="383.00" arrivalLane="A0bottom0_0" arrivalPos="286.40" arrivalSpeed="13.02" duration="187.00" routeLength="1497.83" waitingTime="51.00" waitingCount="3" stopTime="0.00" timeLoss="77.34" rerouteNo="0" devices="tripinfo_47" vType="DEFAULT_VEHTYPE" speedFactor="0.99" vaporized=""/>
    <tripinfo id="44" depart="194.00" departLane="top1B3_0" departPos="5.10" departSpeed="0.00" departDelay="0.00" arrival="385.00" arrivalLane="D3top3_0" arrivalPos="286.40" arrivalSpeed="13.37" duration="191.00" routeLength="1197.66" waitingTime="80.00" waitingCount="2" stopTime="0.00" timeLoss="99.52" rerouteNo="0" devices="tripinfo_44" vType="DEFAULT_VEHTYPE" speedFactor="0.96" vaporized=""/>
    <tripinfo id="53" depart="229.00" departLane="left3A3_0" departPos="5.10" departSpeed="0.00" departDelay="0.00" arrival="386.00" arrivalLane="A1left1_0" arrivalPos="286.40" arrivalSpeed="14.10" duration="157.00" routeLength="1161.43" waitingTime="55.00" waitingCount="3" stopTime="0.00" timeLoss="75.27" rerouteNo="0" devices="tripinfo_53" vType="DEFAULT_VEHTYPE" speedFactor="1.04" vaporized=""/>
    <tripinfo id="60" depart="264.00" departLane="top1B3_0" departPos="5.10" departSpeed="0.00" departDelay="0.00" arrival="397.00" arrivalLane="C0bottom2_0" arrivalPos="286.40" arrivalSpeed="15.26" duration="133.00" routeLength="1782.59" waitingTime="0.00" waitingCount="0" stopTime="0.00" timeLoss="19.11" rerouteNo="0" devices="tripinfo_60" vType="DEFAULT_VEHTYPE" speedFactor="1.14" vaporized=""/>
    <tripinfo id="55" depart="231.00" departLane="top1B3_0" departPos="5.10" departSpeed="0.00" departDelay="0.00" arrival="399.00" arrivalLane="A1left1_0" arrivalPos="286.40" arrivalSpeed="14.06" duration="168.00" routeLength="1479.94" waitingTime="33.00" waitingCount="4" stopTime="0.00" timeLoss="62.38" rerouteNo="0" devices="tripinfo_55" vType="DEFAULT_VEHTYPE" speedFactor="1.01" vaporized=""/>
    <tripinfo id="61" depart="268.00" departLane="left2A2_0" departPos="5.10" departSpeed="0.00" departDelay="0.00" arrival="400.00" arrivalLane="A3top0_0" arrivalPos="286.40" arrivalSpeed="13.38" duration="132.00" routeLength="895.01" waitingTime="57.00" waitingCount="1" stopTime="0.00" timeLoss="69.67" rerouteNo="0" devices="tripinfo_61" vType="DEFAULT_VEHTYPE" speedFactor="1.04" vaporized=""/>
    <tripinfo id="75" depart="337.00" departLane="bottom2C0_0" departPos="5.10" departSpeed="0.00" departDelay="1.00" arrival="418.00" arrivalLane="D0bottom3_0" arrivalPos="286.40" arrivalSpeed="14.56" duration="81.00" routeLength="858.56" waitingTime="2.00" waitingCount="2" stopTime="0.00" timeLoss="21.11" rerouteNo="0" devices="tripinfo_75" vType="DEFAULT_VEHTYPE" speedFactor="1.06" vaporized=""/>
    <tripinfo id="29" depart="138.00" departLane="left2A2_0" departPos="5.10" departSpeed="0.00" departDelay="0.00" arrival="430.00" arrivalLane="C3top2_0" arrivalPos="286.40" arrivalSpeed="12.19" duration="292.00" routeLength="1495.35" waitingTime="150.00" waitingCount="4" stopTime="0.00" timeLoss="179.66" rerouteNo="0" devices="tripinfo_29" vType="DEFAULT_VEHTYPE" speedFactor="0.96" vaporized=""/>
    <tripinfo id="65" depart="298.00" departLane="right2D2_0" departPos="5.10" departSpeed="0.00" departDelay="3.00" arrival="431.00" arrivalLane="D1right1_0" arrivalPos="286.40" arrivalSpeed="10.00" duration="133.00" routeLength="894.86" waitingTime="30.00" waitingCount="1" stopTime="0.00" timeLoss="42.73" rerouteNo="0" devices="tripinfo_65" vType="DEFAULT_VEHTYPE" speedFactor="0.73" vaporized=""/>
    <tripinfo id="72" depart="330.00" departLane="bottom0A0_0" departPos="5.10" departSpeed="0.00" departDelay="0.00" arrival="431.00" arrivalLane="A1left1_0" arrivalPos="286.40" arrivalSpeed="13.25" duration="101.00" routeLength="897.72" waitingTime="27.00" waitingCount="1" stopTime="0.00" timeLoss="37.59" rerouteNo="0" devices="tripinfo_72" vType="DEFAULT_VEHTYPE" speedFactor="1.04" vaporized=""/>
    <tripinfo id="80" depart="358.00" departLane="right2D2_0" departPos="5.10" departSpeed="0.00" departDelay="0.00" arrival="437.00" arrivalLane="D3right3_0" arrivalPos="286.40" arrivalSpeed="13.06" duration="79.00" routeLength="858.56" waitingTime="2.00" waitingCount="2" stopTime="0.00" timeLoss="18.32" rerouteNo="0" devices="tripinfo_80" vType="DEFAULT_VEHTYPE" speedFactor="1.03" vaporized=""/>
    <tripinfo id="51" depart="221.00" departLane="right0D0_0" departPos="5.10" departSpeed="0.00" departDelay="0.00" arrival="449.00" arrivalLane="D3right3_0" arrivalPos="286.40" arrivalSpeed="11.91" duration="228.00" routeLength="1461.60" waitingTime="82.00" waitingCount="3" stopTime="0.00" timeLoss="108.90" rerouteNo="0" devices="tripinfo_51" vType="DEFAULT_VEHTYPE" speedFactor="0.90" vaporized=""/>
    <tripinfo id="52" depart="229.00" departLane="bottom1B0_0" departPos="5.10" departSpeed="0.00" departDelay="0.00" arrival="451.00" arrivalLane="D1right1_0" arrivalPos="286.40" arrivalSpeed="11.53" duration="222.00" routeLength="1479.94" waitingTime="71.00" waitingCount="3" stopTime="0.00" timeLoss="98.96" rerouteNo="0" devices="tripinfo_52" vType="DEFAULT_VEHTYPE" speedFactor="0.87" vaporized=""/>
    <tripinfo id="38" depart="161.00" departLane="left2A2_0" departPos="5.10" departSpeed="0.00" departDelay="0.00" arrival="459.00" arrivalLane="D3top3_0" arrivalPos="286.40" arrivalSpeed="13.03" duration="298.00" routeLength="1795.52" waitingTime="132.00" waitingCount="3" stopTime="0.00" timeLoss="168.43" rerouteNo="0" devices="tripinfo_38" vType="DEFAULT_VEHTYPE" speedFactor="1.01" vaporized=""/>
    <tripinfo id="58" depart="246.00" departLane="right0D0_0" departPos="5.10" departSpeed="0.00" departDelay="0.00" arrival="468.00" arrivalLane="A0left0_0" arrivalPos="286.40" arrivalSpeed="13.73" duration="222.00" routeLength="1495.58" waitingTime="88.00" waitingCount="4" stopTime="0.00" timeLoss="120.78" rerouteNo="0" devices="tripinfo_58" vType="DEFAULT_VEHTYPE" speedFactor="1.07" vaporized=""/>
    <tripinfo id="83" depart="369.00" departLane="right0D0_0" departPos="5.10" departSpeed="0.00" departDelay="0.00" arrival="472.00" arrivalLane="C0bottom2_0" arrivalPos="286.40" arrivalSpeed="12.36" duration="103.00" routeLength="897.72" waitingTime="18.00" waitingCount="1" stopTime="0.00" timeLoss="31.24" rerouteNo="0" devices="tripinfo_83" vType="DEFAULT_VEHTYPE" speedFactor="0.91" vaporized=""/>
    <tripinfo id="86" depart="397.00" departLane="bottom0A0_0" departPos="5.10" departSpeed="0.00" departDelay="0.00" arrival="477.00" arrivalLane="A1left1_0" arrivalPos="286.40" arrivalSpeed="15.02" duration="80.00" routeLength="897.72" waitingTime="8.00" waitingCount="1" stopTime="0.00" timeLoss="20.84" rerouteNo="0" devices="tripinfo_86" vType="DEFAULT_VEHTYPE" speedFactor="1.10" vaporized=""/>
    <tripinfo id="40" depart="170.00" departLane="left3A3_0" departPos="5.10" departSpeed="0.00" departDelay="0.00" arrival="484.00" arrivalLane="D0bottom3_0" arrivalPos="286.40" arrivalSpeed="10.16" duration="314.00" routeLength="2380.45" waitingTime="63.00" waitingCount="4" stopTime="0.00" timeLoss="103.44" rerouteNo="0" devices="tripinfo_40" vType="DEFAULT_VEHTYPE" speedFactor="0.82" vaporized=""/>
    <tripinfo id="21" depart="80.00" departLane="top2C3_0" departPos="5.10" departSpeed="0.00" departDelay="2.00" arrival="487.00" arrivalLane="A1left1_0" arrivalPos="286.40" arrivalSpeed="14.87" duration="407.00" routeLength="1780.11" waitingTime="261.00" waitingCount="3" stopTime="0.00" timeLoss="289.95" rerouteNo="0" devices="tripinfo_21" vType="DEFAULT_VEHTYPE" speedFactor="1.11" vaporized=""/>
    <tripinfo id="54" depart="230.00" departLane="right1D1_0" departPos="5.10" departSpeed="0.00" departDelay="0.00" arrival="498.00" arrivalLane="A0bottom0_0" arrivalPos="286.40" arrivalSpeed="14.17" duration="268.00" routeLength="1795.52" waitingTime="109.00" waitingCount="4" stopTime="0.00" timeLoss="142.29" rerouteNo="0" devices="tripinfo_54" vType="DEFAULT_VEHTYPE" speedFactor="1.03" vaporized=""/>
    <tripinfo id="71" depart="312.00" departLane="top1B3_0" departPos="5.10" departSpeed="0.00" departDelay="0.00" arrival="501.00" arrivalLane="B3top1_0" arrivalPos="286.40" arrivalSpeed="11.17" duration="189.00" routeLength="1748.75" waitingTime="14.00" waitingCount="3" stopTime="0.00" timeLoss="40.36" rerouteNo="0" devices="tripinfo_71" vType="DEFAULT_VEHTYPE" speedFactor="0.86" vaporized=""/>
    <tripinfo id="84" depart="388.00" departLane="left3A3_0" departPos="5.10" departSpeed="0.00" departDelay="0.00" arrival="501.00" arrivalLane="A1left1_0" arrivalPos="286.40" arrivalSpeed="13.86" duration="113.00" routeLength="1161.43" waitingTime="10.00" waitingCount="2" stopTime="0.00" timeLoss="30.97" rerouteNo="0" devices="tripinfo_84" vType="DEFAULT_VEHTYPE" speedFactor="1.04" vaporized=""/>
    <tripinfo id="39" depart="164.00" departLane="top2C3_0" departPos="5.10" departSpeed="0.00" departDelay="0.00" arrival="509.00" arrivalLane="D0right0_0" arrivalPos="286.40" arrivalSpeed="13.80" duration="345.00" routeLength="1795.52" waitingTime="187.00" waitingCount="3" stopTime="0.00" timeLoss="218.91" rerouteNo="0" devices="tripinfo_39" vType="DEFAULT_VEHTYPE" speedFactor="1.03" vaporized=""/>
    <tripinfo id="96" depart="426.00" departLane="bottom2C0_0" departPos="5.10" departSpeed="0.00" departDelay="0.00" arrival="511.00" arrivalLane="D0right0_0" arrivalPos="286.40" arrivalSpeed="13.34" duration="85.00" routeLength="879.60" waitingTime="5.00" waitingCount="1" stopTime="0.00" timeLoss="21.56" rerouteNo="0" devices="tripinfo_96" vType="DEFAULT_VEHTYPE" speedFactor="1.01" vaporized=""/>
    <tripinfo id="76" depart="344.00" departLane="top1B3_0" departPos="5.10" departSpeed="0.00" departDelay="0.00" arrival="522.00" arrivalLane="B3top1_0" arrivalPos="286.40" arrivalSpeed="13.44" duration="178.00" routeLength="1748.75" waitingTime="13.00" waitingCount="4" stopTime="0.00" timeLoss="46.14" rerouteNo="0" devices="tripinfo_76" vType="DEFAULT_VEHTYPE" speedFactor="0.98" vaporized=""/>
    <tripinfo id="99" depart="451.00" departLane="left3A3_0" departPos="5.10" departSpeed="0.00" departDelay="0.00" arrival="526.00" arrivalLane="A2left2_0" arrivalPos="286.40" arrivalSpeed="12.98" duration="75.00" routeLength="858.56" waitingTime="1.00" waitingCount="1" stopTime="0.00" timeLoss="12.89" rerouteNo="0" devices="tripinfo_99" vType="DEFAULT_VEHTYPE" speedFactor="1.01" vaporized=""/>
    <tripinfo id="70" depart="307.00" departLane="top1B3_0" departPos="5.10" departSpeed="0.00" departDelay="2.00" arrival="529.00" arrivalLane="C3top2_0" arrivalPos="286.40" arrivalSpeed="14.40" duration="222.00" routeLength="894.86" waitingTime="141.00" waitingCount="2" stopTime="0.00" timeLoss="158.75" rerouteNo="0" devices="tripinfo_70" vType="DEFAULT_VEHTYPE" speedFactor="1.04" vaporized=""/>
    <tripinfo id="68" depart="304.00" departLane="top1B3_0" departPos="5.10" departSpeed="0.00" departDelay="0.00" arrival="531.00" arrivalLane="A2left2_0" arrivalPos="286.40" arrivalSpeed="12.13" duration="227.00" routeLength="1179.77" waitingTime="115.00" waitingCount="2" stopTime="0.00" timeLoss="134.19" rerouteNo="0" devices="tripinfo_68" vType="DEFAULT_VEHTYPE" speedFactor="0.92" vaporized=""/>
    <tripinfo id="74" depart="335.00" departLane="left1A1_0" departPos="5.10" departSpeed="0.00" departDelay="0.00" arrival="538.00" arrivalLane="A3top0_0" arrivalPos="286.40" arrivalSpeed="13.62" duration="203.00" routeLength="1195.18" waitingTime="102.00" waitingCount="2" stopTime="0.00" timeLoss="120.79" rerouteNo="0" devices="tripinfo_74" vType="DEFAULT_VEHTYPE" speedFactor="1.06" vaporized=""/>