<?xml version="1.0" encoding="UTF-8"?>

<!-- generated on 12/10/21 14:13:25 by Eclipse SUMO sumo Version 1.7.0
<configuration xmlns:xsi="http://www.w3.org/2001/XMLSchema-instance" xsi:noNamespaceSchemaLocation="http://sumo.dlr.de/xsd/sumoConfiguration.xsd">

    <input>
        <net-file value="C:\Users\longs\Desktop\RESCO-main\environments\grid4x4\grid4x4.net.xml"/>
        <route-files value="C:\Users\longs\Desktop\RESCO-main\environments\grid4x4\grid4x4_80.rou.xml"/>
    </input>

    <output>
        <tripinfo-output value="C:\Users\longs\Desktop\RESCO-main\logs\STOCHASTIC-tr1-grid4x4-0-mplight-wait\tripinfo_80.xml"/>
        <tripinfo-output.write-unfinished value="true"/>
    </output>

    <processing>
        <time-to-teleport value="-1"/>
    </processing>

    <report>
        <no-warnings value="true"/>
        <no-step-log value="true"/>
    </report>

    <traci_server>
        <remote-port value="59882"/>
    </traci_server>

    <random_number>
        <random value="true"/>
    </random_number>

</configuration>
-->

<tripinfos xmlns:xsi="http://www.w3.org/2001/XMLSchema-instance" xsi:noNamespaceSchemaLocation="http://sumo.dlr.de/xsd/tripinfo_file.xsd">
    <tripinfo id="1" depart="3.00" departLane="right1D1_0" departPos="5.10" departSpeed="0.00" departDelay="0.00" arrival="75.00" arrivalLane="D2right2_0" arrivalPos="286.40" arrivalSpeed="15.10" duration="72.00" routeLength="858.56" waitingTime="1.00" waitingCount="1" stopTime="0.00" timeLoss="16.51" rerouteNo="0" devices="tripinfo_1" vType="DEFAULT_VEHTYPE" speedFactor="1.14" vaporized=""/>
    <tripinfo id="12" depart="28.00" departLane="top2C3_0" departPos="5.10" departSpeed="0.00" departDelay="0.00" arrival="127.00" arrivalLane="A3top0_0" arrivalPos="286.40" arrivalSpeed="14.10" duration="99.00" routeLength="1161.43" waitingTime="1.00" waitingCount="1" stopTime="0.00" timeLoss="16.38" rerouteNo="0" devices="tripinfo_12" vType="DEFAULT_VEHTYPE" speedFactor="1.04" vaporized=""/>
    <tripinfo id="20" depart="72.00" departLane="right0D0_0" departPos="5.10" departSpeed="0.00" departDelay="0.00" arrival="132.00" arrivalLane="D0bottom3_0" arrivalPos="286.40" arrivalSpeed="11.36" duration="60.00" routeLength="597.55" waitingTime="0.00" waitingCount="0" stopTime="0.00" timeLoss="10.94" rerouteNo="0" devices="tripinfo_20" vType="DEFAULT_VEHTYPE" speedFactor="0.90" vaporized=""/>
    <tripinfo id="17" depart="53.00" departLane="right3D3_0" departPos="5.10" departSpeed="0.00" departDelay="0.00" arrival="135.00" arrivalLane="C3top2_0" arrivalPos="286.40" arrivalSpeed="13.50" duration="82.00" routeLength="876.90" waitingTime="3.00" waitingCount="2" stopTime="0.00" timeLoss="20.16" rerouteNo="0" devices="tripinfo_17" vType="DEFAULT_VEHTYPE" speedFactor="1.04" vaporized=""/>
    <tripinfo id="7" depart="18.00" departLane="bottom1B0_0" departPos="5.10" departSpeed="0.00" departDelay="0.00" arrival="153.00" arrivalLane="D1right1_0" arrivalPos="286.40" arrivalSpeed="13.89" duration="135.00" routeLength="1479.94" waitingTime="8.00" waitingCount="2" stopTime="0.00" timeLoss="27.26" rerouteNo="0" devices="tripinfo_7" vType="DEFAULT_VEHTYPE" speedFactor="1.00" vaporized=""/>
    <tripinfo id="0" depart="1.00" departLane="right2D2_0" departPos="5.10" departSpeed="0.00" departDelay="0.00" arrival="189.00" arrivalLane="A3top0_0" arrivalPos="286.40" arrivalSpeed="13.53" duration="188.00" routeLength="1780.11" waitingTime="21.00" waitingCount="4" stopTime="0.00" timeLoss="56.58" rerouteNo="0" devices="tripinfo_0" vType="DEFAULT_VEHTYPE" speedFactor="0.98" vaporized=""/>
    <tripinfo id="3" depart="6.00" departLane="top1B3_0" departPos="5.10" departSpeed="0.00" departDelay="0.00" arrival="200.00" arrivalLane="D0right0_1" arrivalPos="286.40" arrivalSpeed="14.37" duration="194.00" routeLength="2095.69" waitingTime="15.00" waitingCount="2" stopTime="0.00" timeLoss="50.21" rerouteNo="0" devices="tripinfo_3" vType="DEFAULT_VEHTYPE" speedFactor="1.06" vaporized=""/>
    <tripinfo id="24" depart="82.00" departLane="bottom1B0_0" departPos="5.10" departSpeed="0.00" departDelay="2.00" arrival="201.00" arrivalLane="D0right0_0" arrivalPos="286.40" arrivalSpeed="12.05" duration="119.00" routeLength="1179.77" waitingTime="2.00" waitingCount="2" stopTime="0.00" timeLoss="26.21" rerouteNo="0" devices="tripinfo_24" vType="DEFAULT_VEHTYPE" speedFactor="0.93" vaporized=""/>
    <tripinfo id="13" depart="31.00" departLane="right1D1_0" departPos="5.10" departSpeed="0.00" departDelay="0.00" arrival="214.00" arrivalLane="D0bottom3_0" arrivalPos="286.40" arrivalSpeed="10.68" duration="183.00" routeLength="895.01" waitingTime="87.00" waitingCount="2" stopTime="0.00" timeLoss="104.38" rerouteNo="0" devices="tripinfo_13" vType="DEFAULT_VEHTYPE" speedFactor="0.83" vaporized=""/>
    <tripinfo id="4" depart="7.00" departLane="bottom1B0_0" departPos="5.10" departSpeed="0.00" departDelay="0.00" arrival="219.00" arrivalLane="B3top1_0" arrivalPos="286.40" arrivalSpeed="13.76" duration="212.00" routeLength="1495.58" waitingTime="94.00" waitingCount="1" stopTime="0.00" timeLoss="111.79" rerouteNo="0" devices="tripinfo_4" vType="DEFAULT_VEHTYPE" speedFactor="1.08" vaporized=""/>
    <tripinfo id="28" depart="120.00" departLane="bottom1B0_0" departPos="5.10" departSpeed="0.00" departDelay="0.00" arrival="220.00" arrivalLane="A0bottom0_0" arrivalPos="286.40" arrivalSpeed="12.93" duration="100.00" routeLength="894.86" waitingTime="15.00" waitingCount="2" stopTime="0.00" timeLoss="31.89" rerouteNo="0" devices="tripinfo_28" vType="DEFAULT_VEHTYPE" speedFactor="0.97" vaporized=""/>
    <tripinfo id="9" depart="19.00" departLane="top1B3_0" departPos="5.10" departSpeed="0.00" departDelay="0.00" arrival="227.00" arrivalLane="D3right3_0" arrivalPos="286.40" arrivalSpeed="14.71" duration="208.00" routeLength="1195.18" waitingTime="110.00" waitingCount="2" stopTime="0.00" timeLoss="131.11" rerouteNo="0" devices="tripinfo_9" vType="DEFAULT_VEHTYPE" speedFactor="1.14" vaporized=""/>
    <tripinfo id="5" depart="9.00" departLane="bottom2C0_0" departPos="5.10" departSpeed="0.00" departDelay="0.00" arrival="228.00" arrivalLane="B3top1_0" arrivalPos="286.40" arrivalSpeed="13.67" duration="219.00" routeLength="1782.59" waitingTime="75.00" waitingCount="2" stopTime="0.00" timeLoss="96.02" rerouteNo="0" devices="tripinfo_5" vType="DEFAULT_VEHTYPE" speedFactor="1.06" vaporized=""/>
    <tripinfo id="8" depart="18.00" departLane="bottom2C0_0" departPos="5.10" departSpeed="0.00" departDelay="0.00" arrival="233.00" arrivalLane="C0bottom2_0" arrivalPos="286.40" arrivalSpeed="11.12" duration="215.00" routeLength="1748.75" waitingTime="40.00" waitingCount="3" stopTime="0.00" timeLoss="68.95" rerouteNo="0" devices="tripinfo_8" vType="DEFAULT_VEHTYPE" speedFactor="0.88" vaporized=""/>
    <tripinfo id="14" depart="36.00" departLane="bottom1B0_0" departPos="5.10" departSpeed="0.00" departDelay="0.00" arrival="233.00" arrivalLane="B3top1_0" arrivalPos="286.40" arrivalSpeed="14.22" duration="197.00" routeLength="1495.58" waitingTime="77.00" waitingCount="1" stopTime="0.00" timeLoss="91.32" rerouteNo="0" devices="tripinfo_14" vType="DEFAULT_VEHTYPE" speedFactor="1.03" vaporized=""/>
    <tripinfo id="19" depart="56.00" departLane="left2A2_0" departPos="5.10" departSpeed="0.00" departDelay="0.00" arrival="239.00" arrivalLane="D3top3_0" arrivalPos="286.40" arrivalSpeed="13.38" duration="183.00" routeLength="1795.52" waitingTime="22.00" waitingCount="3" stopTime="0.00" timeLoss="52.55" rerouteNo="0" devices="tripinfo_19" vType="DEFAULT_VEHTYPE" speedFactor="1.00" vaporized=""/>
    <tripinfo id="22" depart="73.00" departLane="left1A1_0" departPos="5.10" departSpeed="0.00" departDelay="0.00" arrival="269.00" arrivalLane="D2right2_0" arrivalPos="286.40" arrivalSpeed="13.48" duration="196.00" routeLength="1782.59" waitingTime="48.00" waitingCount="3" stopTime="0.00" timeLoss="72.91" rerouteNo="0" devices="tripinfo_22" vType="DEFAULT_VEHTYPE" speedFactor="1.05" vaporized=""/>
    <tripinfo id="49" depart="210.00" departLane="right2D2_0" departPos="5.10" departSpeed="0.00" departDelay="0.00" arrival="278.00" arrivalLane="D1right1_0" arrivalPos="286.40" arrivalSpeed="14.56" duration="68.00" routeLength="894.86" waitingTime="0.00" waitingCount="0" stopTime="0.00" timeLoss="6.72" rerouteNo="0" devices="tripinfo_49" vType="DEFAULT_VEHTYPE" speedFactor="1.08" vaporized=""/>
    <tripinfo id="25" depart="82.00" departLane="bottom0A0_0" departPos="5.10" departSpeed="0.00" departDelay="0.00" arrival="279.00" arrivalLane="D0bottom3_0" arrivalPos="286.40" arrivalSpeed="13.07" duration="197.00" routeLength="1461.60" waitingTime="57.00" waitingCount="4" stopTime="0.00" timeLoss="84.51" rerouteNo="0" devices="tripinfo_25" vType="DEFAULT_VEHTYPE" speedFactor="0.95" vaporized=""/>
    <tripinfo id="34" depart="142.00" departLane="left2A2_0" departPos="5.10" departSpeed="0.00" departDelay="0.00" arrival="296.00" arrivalLane="B3top1_0" arrivalPos="286.40" arrivalSpeed="14.62" duration="154.00" routeLength="1195.18" waitingTime="53.00" waitingCount="3" stopTime="0.00" timeLoss="77.36" rerouteNo="0" devices="tripinfo_34" vType="DEFAULT_VEHTYPE" speedFactor="1.13" vaporized=""/>
    <tripinfo id="32" depart="130.00" departLane="bottom1B0_0" departPos="5.10" departSpeed="0.00" departDelay="0.00" arrival="308.00" arrivalLane="A2left2_0" arrivalPos="286.40" arrivalSpeed="14.22" duration="178.00" routeLength="1495.35" waitingTime="48.00" waitingCount="3" stopTime="0.00" timeLoss="73.17" rerouteNo="0" devices="tripinfo_32" vType="DEFAULT_VEHTYPE" speedFactor="1.03" vaporized=""/>
    <tripinfo id="54" depart="230.00" departLane="bottom1B0_0" departPos="5.10" departSpeed="0.00" departDelay="0.00" arrival="314.00" arrivalLane="C0bottom2_0" arrivalPos="286.40" arrivalSpeed="11.48" duration="84.00" routeLength="858.56" waitingTime="0.00" waitingCount="0" stopTime="0.00" timeLoss="9.70" rerouteNo="0" devices="tripinfo_54" vType="DEFAULT_VEHTYPE" speedFactor="0.86" vaporized=""/>
    <tripinfo id="27" depart="119.00" departLane="left1A1_0" departPos="5.10" departSpeed="0.00" departDelay="0.00" arrival="329.00" arrivalLane="C0bottom2_0" arrivalPos="286.40" arrivalSpeed="14.39" duration="210.00" routeLength="1479.94" waitingTime="84.00" waitingCount="3" stopTime="0.00" timeLoss="106.14" rerouteNo="0" devices="tripinfo_27" vType="DEFAULT_VEHTYPE" speedFactor="1.04" vaporized=""/>
    <tripinfo id="29" depart="122.00" departLane="left0A0_0" departPos="5.10" departSpeed="0.00" departDelay="0.00" arrival="341.00" arrivalLane="B3top1_0" arrivalPos="286.40" arrivalSpeed="12.20" duration="219.00" routeLength="1795.52" waitingTime="47.00" waitingCount="4" stopTime="0.00" timeLoss="78.65" rerouteNo="0" devices="tripinfo_29" vType="DEFAULT_VEHTYPE" speedFactor="0.93" vaporized=""/>
    <tripinfo id="6" depart="10.00" departLane="top1B3_0" departPos="5.10" departSpeed="0.00" departDelay="0.00" arrival="343.00" arrivalLane="A0bottom0_0" arrivalPos="286.40" arrivalSpeed="11.56" duration="333.00" routeLength="1782.72" waitingTime="151.00" waitingCount="4" stopTime="0.00" timeLoss="183.43" rerouteNo="0" devices="tripinfo_6" vType="DEFAULT_VEHTYPE" speedFactor="0.87" vaporized=""/>
    <tripinfo id="18" depart="56.00" departLane="left0A0_0" departPos="5.10" departSpeed="0.00" departDelay="0.00" arrival="343.00" arrivalLane="A3left3_0" arrivalPos="286.40" arrivalSpeed="13.17" duration="287.00" routeLength="1497.83" waitingTime="156.00" waitingCount="3" stopTime="0.00" timeLoss="180.84" rerouteNo="0" devices="tripinfo_18" vType="DEFAULT_VEHTYPE" speedFactor="1.03" vaporized=""/>
    <tripinfo id="23" depart="79.00" departLane="bottom1B0_0" departPos="5.10" departSpeed="0.00" departDelay="0.00" arrival="346.00" arrivalLane="A3top0_0" arrivalPos="286.40" arrivalSpeed="12.10" duration="267.00" routeLength="1782.59" waitingTime="97.00" waitingCount="4" stopTime="0.00" timeLoss="123.44" rerouteNo="0" devices="tripinfo_23" vType="DEFAULT_VEHTYPE" speedFactor="0.90" vaporized=""/>
    <tripinfo id="31" depart="125.00" departLane="bottom2C0_0" departPos="5.10" departSpeed="0.00" departDelay="0.00" arrival="349.00" arrivalLane="D3right3_0" arrivalPos="286.40" arrivalSpeed="13.90" duration="224.00" routeLength="1780.11" waitingTime="62.00" waitingCount="5" stopTime="0.00" timeLoss="96.64" rerouteNo="0" devices="tripinfo_31" vType="DEFAULT_VEHTYPE" speedFactor="1.01" vaporized=""/>
    <tripinfo id="36" depart="146.00" departLane="left0A0_0" departPos="5.10" departSpeed="0.00" departDelay="0.00" arrival="351.00" arrivalLane="A0left0_0" arrivalPos="286.40" arrivalSpeed="12.88" duration="205.00" routeLength="1745.91" waitingTime="42.00" waitingCount="3" stopTime="0.00" timeLoss="67.29" rerouteNo="0" devices="tripinfo_36" vType="DEFAULT_VEHTYPE" speedFactor="0.93" vaporized=""/>
    <tripinfo id="10" depart="21.00" departLane="top0A3_0" departPos="5.10" departSpeed="0.00" departDelay="0.00" arrival="353.00" arrivalLane="D3right3_0" arrivalPos="286.40" arrivalSpeed="12.86" duration="332.00" routeLength="1495.35" waitingTime="184.00" waitingCount="4" stopTime="0.00" timeLoss="215.21" rerouteNo="0" devices="tripinfo_10" vType="DEFAULT_VEHTYPE" speedFactor="0.93" vaporized=""/>
    <tripinfo id="15" depart="44.00" departLane="bottom0A0_0" departPos="5.10" departSpeed="0.00" departDelay="0.00" arrival="355.00" arrivalLane="D3right3_0" arrivalPos="286.40" arrivalSpeed="12.62" duration="311.00" routeLength="2380.45" waitingTime="82.00" waitingCount="5" stopTime="0.00" timeLoss="128.57" rerouteNo="0" devices="tripinfo_15" vType="DEFAULT_VEHTYPE" speedFactor="0.95" vaporized=""/>
    <tripinfo id="46" depart="195.00" departLane="left0A0_0" departPos="5.10" departSpeed="0.00" departDelay="0.00" arrival="356.00" arrivalLane="C0bottom2_0" arrivalPos="286.40" arrivalSpeed="16.16" duration="161.00" routeLength="1177.07" waitingTime="61.00" waitingCount="3" stopTime="0.00" timeLoss="87.88" rerouteNo="0" devices="tripinfo_46" vType="DEFAULT_VEHTYPE" speedFactor="1.18" vaporized=""/>
    <tripinfo id="39" depart="160.00" departLane="right3D3_0" departPos="5.10" departSpeed="0.00" departDelay="0.00" arrival="370.00" arrivalLane="A3left3_0" arrivalPos="286.40" arrivalSpeed="13.04" duration="210.00" routeLength="1495.58" waitingTime="75.00" waitingCount="3" stopTime="0.00" timeLoss="96.62" rerouteNo="0" devices="tripinfo_39" vType="DEFAULT_VEHTYPE" speedFactor="0.96" vaporized=""/>
    <tripinfo id="52" depart="223.00" departLane="bottom1B0_0" departPos="5.10" departSpeed="0.00" departDelay="0.00" arrival="370.00" arrivalLane="A1left1_0" arrivalPos="286.40" arrivalSpeed="12.77" duration="147.00" routeLength="1195.18" waitingTime="43.00" waitingCount="1" stopTime="0.00" timeLoss="58.52" rerouteNo="0" devices="tripinfo_52" vType="DEFAULT_VEHTYPE" speedFactor="0.98" vaporized=""/>
    <tripinfo id="67" depart="306.00" departLane="left0A0_0" departPos="5.10" departSpeed="0.00" departDelay="0.00" arrival="376.00" arrivalLane="B0bottom1_0" arrivalPos="286.40" arrivalSpeed="14.27" duration="70.00" routeLength="876.90" waitingTime="0.00" waitingCount="0" stopTime="0.00" timeLoss="10.01" rerouteNo="0" devices="tripinfo_67" vType="DEFAULT_VEHTYPE" speedFactor="1.07" vaporized=""/>
    <tripinfo id="41" depart="164.00" departLane="bottom2C0_0" departPos="5.10" departSpeed="0.00" departDelay="0.00" arrival="389.00" arrivalLane="C0bottom2_0" arrivalPos="286.40" arrivalSpeed="13.12" duration="225.00" routeLength="1748.75" waitingTime="69.00" waitingCount="4" stopTime="0.00" timeLoss="97.99" rerouteNo="0" devices="tripinfo_41" vType="DEFAULT_VEHTYPE" speedFactor="1.01" vaporized=""/>
    <tripinfo id="2" depart="5.00" departLane="left3A3_0" departPos="5.10" departSpeed="0.00" departDelay="0.00" arrival="390.00" arrivalLane="D0right0_1" arrivalPos="286.40" arrivalSpeed="13.15" duration="385.00" routeLength="2382.93" waitingTime="166.00" waitingCount="4" stopTime="0.00" timeLoss="212.59" rerouteNo="0" devices="tripinfo_2" vType="DEFAULT_VEHTYPE" speedFactor="1.01" vaporized=""/>
    <tripinfo id="11" depart="23.00" departLane="left3A3_0" departPos="5.10" departSpeed="0.00" departDelay="0.00" arrival="392.00" arrivalLane="D0right0_1" arrivalPos="286.40" arrivalSpeed="13.71" duration="369.00" routeLength="2382.93" waitingTime="150.00" waitingCount="4" stopTime="0.00" timeLoss="196.96" rerouteNo="0" devices="tripinfo_11" vType="DEFAULT_VEHTYPE" speedFactor="1.01" vaporized=""/>
    <tripinfo id="35" depart="144.00" departLane="top3D3_0" departPos="5.10" departSpeed="0.00" departDelay="0.00" arrival="392.00" arrivalLane="D0right0_0" arrivalPos="286.40" arrivalSpeed="11.84" duration="248.00" routeLength="1498.06" waitingTime="93.00" waitingCount="3" stopTime="0.00" timeLoss="120.53" rerouteNo="0" devices="tripinfo_35" vType="DEFAULT_VEHTYPE" speedFactor="0.85" vaporized=""/>
    <tripinfo id="21" depart="72.00" departLane="top3D3_0" departPos="5.10" departSpeed="0.00" departDelay="0.00" arrival="409.00" arrivalLane="C0bottom2_0" arrivalPos="286.40" arrivalSpeed="12.66" duration="337.00" routeLength="1782.72" waitingTime="169.00" waitingCount="5" stopTime="0.00" timeLoss="206.88" rerouteNo="0" devices="tripinfo_21" vType="DEFAULT_VEHTYPE" speedFactor="1.00" vaporized=""/>
    <tripinfo id="42" depart="170.00" departLane="bottom0A0_0" departPos="5.10" departSpeed="0.00" departDelay="0.00" arrival="409.00" arrivalLane="D1right1_0" arrivalPos="286.40" arrivalSpeed="13.37" duration="239.00" routeLength="1780.11" waitingTime="85.00" waitingCount="3" stopTime="0.00" timeLoss="112.60" rerouteNo="0" devices="tripinfo_42" vType="DEFAULT_VEHTYPE" speedFactor="1.02" vaporized=""/>
    <tripinfo id="74" depart="338.00" departLane="top3D3_0" departPos="5.10" departSpeed="0.00" departDelay="0.00" arrival="420.00" arrivalLane="C3top2_0" arrivalPos="286.40" arrivalSpeed="10.98" duration="82.00" routeLength="858.56" waitingTime="0.00" waitingCount="0" stopTime="0.00" timeLoss="10.41" rerouteNo="0" devices="tripinfo_74" vType="DEFAULT_VEHTYPE" speedFactor="0.88" vaporized=""/>
    <tripinfo id="16" depart="52.00" departLane="left1A1_0" departPos="5.10" departSpeed="0.00" departDelay="0.00" arrival="425.00" arrivalLane="D3top3_0" arrivalPos="286.40" arrivalSpeed="16.73" duration="373.00" routeLength="2095.69" waitingTime="200.00" waitingCount="6" stopTime="0.00" timeLoss="247.53" rerouteNo="0" devices="tripinfo_16" vType="DEFAULT_VEHTYPE" speedFactor="1.21" vaporized=""/>
    <tripinfo id="45" depart="192.00" departLane="top1B3_0" departPos="5.10" departSpeed="0.00" departDelay="0.00" arrival="431.00" arrivalLane="B3top1_0" arrivalPos="286.40" arrivalSpeed="12.22" duration="239.00" routeLength="1748.75" waitingTime="66.00" waitingCount="5" stopTime="0.00" timeLoss="101.67" rerouteNo="0" devices="tripinfo_45" vType="DEFAULT_VEHTYPE" speedFactor="0.93" vaporized=""/>
    <tripinfo id="38" depart="154.00" departLane="right1D1_0" departPos="5.10" departSpeed="0.00" departDelay="0.00" arrival="432.00" arrivalLane="A2left2_0" arrivalPos="286.40" arrivalSpeed="11.73" duration="278.00" routeLength="1782.72" waitingTime="101.00" waitingCount="4" stopTime="0.00" timeLoss="127.70" rerouteNo="0" devices="tripinfo_38" vType="DEFAULT_VEHTYPE" speedFactor="0.86" vaporized=""/>
    <tripinfo id="44" depart="185.00" departLane="left1A1_0" departPos="5.10" departSpeed="0.00" departDelay="0.00" arrival="447.00" arrivalLane="D3right3_0" arrivalPos="286.40" arrivalSpeed="14.99" duration="262.00" routeLength="2080.05" waitingTime="89.00" waitingCount="3" stopTime="0.00" timeLoss="125.76" rerouteNo="0" devices="tripinfo_44" vType="DEFAULT_VEHTYPE" speedFactor="1.11" vaporized=""/>
    <tripinfo id="33" depart="138.00" departLane="left3A3_0" departPos="5.10" departSpeed="0.00" departDelay="0.00" arrival="451.00" arrivalLane="D3top3_0" arrivalPos="286.40" arrivalSpeed="11.95" duration="313.00" routeLength="1498.06" waitingTime="167.00" waitingCount="2" stopTime="0.00" timeLoss="194.98" rerouteNo="0" devices="tripinfo_33" vType="DEFAULT_VEHTYPE" speedFactor="0.92" vaporized=""/>
    <tripinfo id="72" depart="329.00" departLane="left1A1_0" departPos="5.10" departSpeed="0.00" departDelay="0.00" arrival="457.00" arrivalLane="D1right1_0" arrivalPos="286.40" arrivalSpeed="14.36" duration="128.00" routeLength="1495.58" waitingTime="12.00" waitingCount="2" stopTime="0.00" timeLoss="31.53" rerouteNo="0" devices="tripinfo_72" vType="DEFAULT_VEHTYPE" speedFactor="1.12" vaporized=""/>
    <tripinfo id="64" depart="301.00" departLane="bottom3D0_0" departPos="5.10" departSpeed="0.00" departDelay="0.00" arrival="464.00" arrivalLane="A0left0_0" arrivalPos="286.40" arrivalSpeed="12.81" duration="163.00" routeLength="1495.35" waitingTime="28.00" waitingCount="3" stopTime="0.00" timeLoss="48.47" rerouteNo="0" devices="tripinfo_64" vType="DEFAULT_VEHTYPE" speedFactor="0.95" vaporized=""/>
    <tripinfo id="57" depart="251.00" departLane="top1B3_0" departPos="5.10" departSpeed="0.00" departDelay="0.00" arrival="465.00" arrivalLane="B0bottom1_0" arrivalPos="286.40" arrivalSpeed="11.86" duration="214.00" routeLength="1495.58" waitingTime="79.00" waitingCount="2" stopTime="0.00" timeLoss="98.55" rerouteNo="0" devices="tripinfo_57" vType="DEFAULT_VEHTYPE" speedFactor="0.94" vaporized=""/>
    <tripinfo id="63" depart="289.00" departLane="left1A1_0" departPos="5.10" departSpeed="0.00" departDelay="0.00" arrival="467.00" arrivalLane="A1left1_0" arrivalPos="286.40" arrivalSpeed="14.17" duration="178.00" routeLength="1748.75" waitingTime="30.00" waitingCount="3" stopTime="0.00" timeLoss="58.96" rerouteNo="0" devices="tripinfo_63" vType="DEFAULT_VEHTYPE" speedFactor="1.08" vaporized=""/>
    <tripinfo id="69" depart="312.00" departLane="left2A2_0" departPos="5.10" departSpeed="0.00" departDelay="0.00" arrival="472.00" arrivalLane="A0left0_0" arrivalPos="286.40" arrivalSpeed="12.15" duration="160.00" routeLength="1161.43" waitingTime="49.00" waitingCount="3" stopTime="0.00" timeLoss="69.28" rerouteNo="0" devices="tripinfo_69" vType="DEFAULT_VEHTYPE" speedFactor="0.94" vaporized=""/>
    <tripinfo id="60" depart="281.00" departLane="right3D3_0" departPos="5.10" departSpeed="0.00" departDelay="0.00" arrival="476.00" arrivalLane="B3top1_0" arrivalPos="286.40" arrivalSpeed="13.71" duration="195.00" routeLength="1177.07" waitingTime="87.00" waitingCount="3" stopTime="0.00" timeLoss="112.28" rerouteNo="0" devices="tripinfo_60" vType="DEFAULT_VEHTYPE" speedFactor="1.04" vaporized=""/>
    <tripinfo id="73" depart="330.00" departLane="bottom2C0_0" departPos="5.10" departSpeed="0.00" departDelay="0.00" arrival="478.00" arrivalLane="D0right0_0" arrivalPos="286.40" arrivalSpeed="13.80" duration="148.00" routeLength="879.60" waitingTime="75.00" waitingCount="1" stopTime="0.00" timeLoss="88.05" rerouteNo="0" devices="tripinfo_73" vType="DEFAULT_VEHTYPE" speedFactor="1.08" vaporized=""/>
    <tripinfo id="48" depart="206.00" departLane="top0A3_0" departPos="5.10" departSpeed="0.00" departDelay="0.00" arrival="487.00" arrivalLane="A0bottom0_0" arrivalPos="286.40" arrivalSpeed="15.23" duration="281.00" routeLength="1495.58" waitingTime="152.00" waitingCount="4" stopTime="0.00" timeLoss="182.96" rerouteNo="0" devices="tripinfo_48" vType="DEFAULT_VEHTYPE" speedFactor="1.10" vaporized=""/>
    <tripinfo id="87" depart="397.00" departLane="bottom3D0_0" departPos="5.10" departSpeed="0.00" departDelay="0.00" arrival="488.00" arrivalLane="C0bottom2_0" arrivalPos="286.40" arrivalSpeed="13.62" duration="91.00" routeLength="894.86" waitingTime="14.00" waitingCount="2" stopTime="0.00" timeLoss="29.80" rerouteNo="0" devices="tripinfo_87" vType="DEFAULT_VEHTYPE" speedFactor="1.07" vaporized=""/>
    <tripinfo id="56" depart="238.00" departLane="right2D2_0" departPos="5.10" departSpeed="0.00" departDelay="0.00" arrival="496.00" arrivalLane="A1left1_0" arrivalPos="286.40" arrivalSpeed="15.31" duration="258.00" routeLength="1782.59" waitingTime="120.00" waitingCount="2" stopTime="0.00" timeLoss="141.96" rerouteNo="0" devices="tripinfo_56" vType="DEFAULT_VEHTYPE" speedFactor="1.12" vaporized=""/>
    <tripinfo id="53" depart="227.00" departLane="top2C3_0" departPos="5.10" departSpeed="0.00" departDelay="0.00" arrival="499.00" arrivalLane="C3top2_0" arrivalPos="286.40" arrivalSpeed="13.67" duration="272.00" routeLength="1748.75" waitingTime="119.00" waitingCount="4" stopTime="0.00" timeLoss="148.30" rerouteNo="0" devices="tripinfo_53" vType="DEFAULT_VEHTYPE" speedFactor="1.03" vaporized=""/>
    <tripinfo id="76" depart="346.00" departLane="bottom2C0_0" departPos="5.10" departSpeed="0.00" departDelay="0.00" arrival="501.00" arrivalLane="A1left1_0" arrivalPos="286.40" arrivalSpeed="13.70" duration="155.00" routeLength="1495.35" waitingTime="33.00" waitingCount="2" stopTime="0.00" timeLoss="52.54" rerouteNo="0" devices="tripinfo_76" vType="DEFAULT_VEHTYPE" speedFactor="1.06" vaporized=""/>
    <tripinfo id="91" depart="415.00" departLane="left3A3_0" departPos="5.10" departSpeed="0.00" departDelay="0.00" arrival="502.00" arrivalLane="A2left2_0" arrivalPos="286.40" arrivalSpeed="12.64" duration="87.00" routeLength="858.56" waitingTime="2.00" waitingCount="2" stopTime="0.00" timeLoss="19.03" rerouteNo="0" devices="tripinfo_91" vType="DEFAULT_VEHTYPE" speedFactor="0.92" vaporized=""/>
    <tripinfo id="50" depart="212.00" departLane="left0A0_0" departPos="5.10" departSpeed="0.00" departDelay="0.00" arrival="521.00" arrivalLane="D0right0_1" arrivalPos="286.40" arrivalSpeed="15.31" duration="309.00" routeLength="1495.58" waitingTime="161.00" waitingCount="4" stopTime="0.00" timeLoss="216.31" rerouteNo="0" devices="tripinfo_50" vType="DEFAULT_VEHTYPE" speedFactor="1.17" vaporized=""/>
    <tripinfo id="37" depart="151.00" departLane="bottom0A0_0" departPos="5.10" departSpeed="0.00" departDelay="0.00" arrival="524.00" arrivalLane="D0right0_1" arrivalPos="286.40" arrivalSpeed="14.26" duration="373.00" routeLength="1479.94" waitingTime="214.00" waitingCount="4" stopTime="0.00" timeLoss="268.25" rerouteNo="0" devices="tripinfo_37" vType="DEFAULT_VEHTYPE" speedFactor="1.03" vaporized=""/>
    <tripinfo id="26" depart="91.00" departLane="left1A1_0" departPos="5.10" departSpeed="0.00" departDelay="0.00" arrival="527.00" arrivalLane="D0right0_0" arrivalPos="286.40" arrivalSpeed="9.98" duration="436.00" routeLength="1782.72" waitingTime="232.00" waitingCount="5" stopTime="0.00" timeLoss="266.42" rerouteNo="0" devices="tripinfo_26" vType="DEFAULT_VEHTYPE" speedFactor="0.77" vaporized=""/>
    <tripinfo id="93" depart="423.00" departLane="left3A3_0" departPos="5.10" departSpeed="0.00" departDelay="0.00" arrival="529.00" arrivalLane="A3top0_0" arrivalPos="286.40" arrivalSpeed="14.08" duration="106.00" routeLength="597.55" waitingTime="54.00" waitingCount="1" stopTime="0.00" timeLoss="62.64" rerouteNo="0" devices="tripinfo_93" vType="DEFAULT_VEHTYPE" speedFactor="1.02" vaporized=""/>
    <tripinfo id="51" depart="220.00" departLane="bottom3D0_0" departPos="5.10" departSpeed="0.00" departDelay="0.00" arrival="538.00" arrivalLane="B3top1_0" arrivalPos="286.40" arrivalSpeed="13.55" duration="318.00" routeLength="2080.05" waitingTime="137.00" waitingCount="5" stopTime="0.00" timeLoss="172.86" rerouteNo="0" devices="tripinfo_51" vType="DEFAULT_VEHTYPE" speedFactor="1.04" vaporized=""/>
    <tripinfo id="30" depart="123.00" departLane="bottom3D0_0" departPos="5.10" departSpeed="0.00" departDelay="0.00" arrival="552.00" arrivalLane="A2left2_0" arrivalPos="286.40" arrivalSpeed="12.19" duration="429.00" routeLength="2095.69" waitingTime="220.00" waitingCount="4" stopTime="0.00" timeLoss="258.80" rerouteNo="0" devices="tripinfo_30" vType="DEFAULT_VEHTYPE" speedFactor="0.89" vaporized=""/>
    <tripinfo id="99" depart="433.00" departLane="right3D3_0" departPos="5.10" departSpeed="0.00" departDelay="0.00" arrival="560.00" arrivalLane="B3top1_0" arrivalPos="286.40" arrivalSpeed="11.79" duration="127.00" routeLength="1177.07" waitingTime="16.00" waitingCount="1" stopTime="0.00" timeLoss="31.24" rerouteNo="0" devices="tripinfo_99" vType="DEFAULT_VEHTYPE" speedFactor="0.89" vaporized=""/>
    <tripinfo id="90" depart="414.00" departLane="right1D1_0" departPos="5.10" departSpeed="0.00" departDelay="0.00" arrival="561.00" arrivalLane="C0bottom2_0" arrivalPos="286.40" arrivalSpeed="11.09" duration="147.00" routeLength="1195.18" waitingTime="28.00" waitingCount="2" stopTime="0.00" timeLoss="48.30" rerouteNo="0" devices="tripinfo_90" vType="DEFAULT_VEHTYPE" speedFactor="0.88" vaporized=""/>
    <tripinfo id="59" depart="259.00" departLane="left0A0_0" departPos="5.10" departSpeed="0.00" departDelay="0.00" arrival="562.00" arrivalLane="C3top2_0" arrivalPos="286.40" arrivalSpeed="13.88" duration="303.00" routeLength="2095.69" waitingTime="124.00" waitingCount="4" stopTime="0.00" timeLoss="156.93" rerouteNo="0" devices="tripinfo_59" vType="DEFAULT_VEHTYPE" speedFactor="1.04" vaporized=""/>
    <tripinfo id="92" depart="419.00" departLane="bottom1B0_0" departPos="5.10" departSpeed="0.00" departDelay="0.00" arrival="563.00" arrivalLane="C3top2_1" arrivalPos="286.40" arrivalSpeed="15.02" duration="144.00" routeLength="1782.72" waitingTime="2.00" waitingCount="2" stopTime="0.00" timeLoss="24.81" rerouteNo="0" devices="tripinfo_92" vType="DEFAULT_VEHTYPE" speedFactor="1.09" vaporized=""/>
    <tripinfo id="79" depart="353.00" departLane="left1A1_0" departPos="5.10" departSpeed="0.00" departDelay="0.00" arrival="564.00" arrivalLane="A3left3_0" arrivalPos="286.40" arrivalSpeed="13.28" duration="211.00" routeLength="1197.66" waitingTime="105.00" waitingCount="2" stopTime="0.00" timeLoss="121.03" rerouteNo="0" devices="tripinfo_79" vType="DEFAULT_VEHTYPE" speedFactor="0.98" vaporized=""/>