<?xml version="1.0" encoding="UTF-8"?>

<!-- generated on 12/10/21 14:06:35 by Eclipse SUMO sumo Version 1.7.0
<configuration xmlns:xsi="http://www.w3.org/2001/XMLSchema-instance" xsi:noNamespaceSchemaLocation="http://sumo.dlr.de/xsd/sumoConfiguration.xsd">

    <input>
        <net-file value="C:\Users\longs\Desktop\RESCO-main\environments\grid4x4\grid4x4.net.xml"/>
        <route-files value="C:\Users\longs\Desktop\RESCO-main\environments\grid4x4\grid4x4_55.rou.xml"/>
    </input>

    <output>
        <tripinfo-output value="C:\Users\longs\Desktop\RESCO-main\logs\STOCHASTIC-tr1-grid4x4-0-mplight-wait\tripinfo_55.xml"/>
        <tripinfo-output.write-unfinished value="true"/>
    </output>

    <processing>
        <time-to-teleport value="-1"/>
    </processing>

    <report>
        <no-warnings value="true"/>
        <no-step-log value="true"/>
    </report>

    <traci_server>
        <remote-port value="59628"/>
    </traci_server>

    <random_number>
        <random value="true"/>
    </random_number>

</configuration>
-->

<tripinfos xmlns:xsi="http://www.w3.org/2001/XMLSchema-instance" xsi:noNamespaceSchemaLocation="http://sumo.dlr.de/xsd/tripinfo_file.xsd">
    <tripinfo id="6" depart="22.00" departLane="top2C3_0" departPos="5.10" departSpeed="0.00" departDelay="0.00" arrival="101.00" arrivalLane="B3top1_0" arrivalPos="286.40" arrivalSpeed="14.50" duration="79.00" routeLength="858.56" waitingTime="2.00" waitingCount="2" stopTime="0.00" timeLoss="19.46" rerouteNo="0" devices="tripinfo_6" vType="DEFAULT_VEHTYPE" speedFactor="1.06" vaporized=""/>
    <tripinfo id="11" depart="32.00" departLane="top3D3_0" departPos="5.10" departSpeed="0.00" departDelay="0.00" arrival="125.00" arrivalLane="B3top1_0" arrivalPos="286.40" arrivalSpeed="17.50" duration="93.00" routeLength="1161.43" waitingTime="2.00" waitingCount="2" stopTime="0.00" timeLoss="26.07" rerouteNo="0" devices="tripinfo_11" vType="DEFAULT_VEHTYPE" speedFactor="1.27" vaporized=""/>
    <tripinfo id="10" depart="29.00" departLane="left3A3_0" departPos="5.10" departSpeed="0.00" departDelay="0.00" arrival="129.00" arrivalLane="A1left1_0" arrivalPos="286.40" arrivalSpeed="13.08" duration="100.00" routeLength="1161.43" waitingTime="1.00" waitingCount="1" stopTime="0.00" timeLoss="16.25" rerouteNo="0" devices="tripinfo_10" vType="DEFAULT_VEHTYPE" speedFactor="1.01" vaporized=""/>
    <tripinfo id="3" depart="11.00" departLane="right2D2_0" departPos="5.10" departSpeed="0.00" departDelay="0.00" arrival="169.00" arrivalLane="C3top2_0" arrivalPos="286.40" arrivalSpeed="13.76" duration="158.00" routeLength="1179.77" waitingTime="56.00" waitingCount="2" stopTime="0.00" timeLoss="73.09" rerouteNo="0" devices="tripinfo_3" vType="DEFAULT_VEHTYPE" speedFactor="1.02" vaporized=""/>
    <tripinfo id="22" depart="66.00" departLane="top2C3_0" departPos="5.10" departSpeed="0.00" departDelay="0.00" arrival="169.00" arrivalLane="D3right3_0" arrivalPos="286.40" arrivalSpeed="12.73" duration="103.00" routeLength="895.01" waitingTime="19.00" waitingCount="2" stopTime="0.00" timeLoss="36.88" rerouteNo="0" devices="tripinfo_22" vType="DEFAULT_VEHTYPE" speedFactor="0.98" vaporized=""/>
    <tripinfo id="0" depart="5.00" departLane="top0A3_0" departPos="5.10" departSpeed="0.00" departDelay="0.00" arrival="190.00" arrivalLane="C3top2_0" arrivalPos="286.40" arrivalSpeed="13.75" duration="185.00" routeLength="1197.66" waitingTime="72.00" waitingCount="3" stopTime="0.00" timeLoss="96.47" rerouteNo="0" devices="tripinfo_0" vType="DEFAULT_VEHTYPE" speedFactor="0.99" vaporized=""/>
    <tripinfo id="35" depart="122.00" departLane="top2C3_0" departPos="5.10" departSpeed="0.00" departDelay="0.00" arrival="190.00" arrivalLane="B3top1_0" arrivalPos="286.40" arrivalSpeed="15.06" duration="68.00" routeLength="858.56" waitingTime="0.00" waitingCount="0" stopTime="0.00" timeLoss="9.25" rerouteNo="0" devices="tripinfo_35" vType="DEFAULT_VEHTYPE" speedFactor="1.09" vaporized=""/>
    <tripinfo id="7" depart="24.00" departLane="left2A2_0" departPos="5.10" departSpeed="0.00" departDelay="0.00" arrival="198.00" arrivalLane="A0bottom0_0" arrivalPos="286.40" arrivalSpeed="14.53" duration="174.00" routeLength="1179.77" waitingTime="69.00" waitingCount="3" stopTime="0.00" timeLoss="93.17" rerouteNo="0" devices="tripinfo_7" vType="DEFAULT_VEHTYPE" speedFactor="1.07" vaporized=""/>
    <tripinfo id="5" depart="21.00" departLane="right1D1_0" departPos="5.10" departSpeed="0.00" departDelay="0.00" arrival="199.00" arrivalLane="D3top3_0" arrivalPos="286.40" arrivalSpeed="12.74" duration="178.00" routeLength="1179.77" waitingTime="65.00" waitingCount="3" stopTime="0.00" timeLoss="91.50" rerouteNo="0" devices="tripinfo_5" vType="DEFAULT_VEHTYPE" speedFactor="0.99" vaporized=""/>
    <tripinfo id="4" depart="18.00" departLane="top3D3_0" departPos="5.10" departSpeed="0.00" departDelay="0.00" arrival="220.00" arrivalLane="A3top0_0" arrivalPos="286.40" arrivalSpeed="11.94" duration="202.00" routeLength="1461.60" waitingTime="56.00" waitingCount="2" stopTime="0.00" timeLoss="79.82" rerouteNo="0" devices="tripinfo_4" vType="DEFAULT_VEHTYPE" speedFactor="0.87" vaporized=""/>
    <tripinfo id="30" depart="110.00" departLane="bottom1B0_0" departPos="5.10" departSpeed="0.00" departDelay="0.00" arrival="232.00" arrivalLane="D1right1_0" arrivalPos="286.40" arrivalSpeed="13.98" duration="122.00" routeLength="1479.94" waitingTime="1.00" waitingCount="1" stopTime="0.00" timeLoss="18.74" rerouteNo="0" devices="tripinfo_30" vType="DEFAULT_VEHTYPE" speedFactor="1.05" vaporized=""/>
    <tripinfo id="36" depart="131.00" departLane="top1B3_0" departPos="5.10" departSpeed="0.00" departDelay="0.00" arrival="236.00" arrivalLane="C3top2_0" arrivalPos="286.40" arrivalSpeed="16.68" duration="105.00" routeLength="894.86" waitingTime="33.00" waitingCount="2" stopTime="0.00" timeLoss="50.38" rerouteNo="0" devices="tripinfo_36" vType="DEFAULT_VEHTYPE" speedFactor="1.21" vaporized=""/>
    <tripinfo id="39" depart="158.00" departLane="right1D1_0" departPos="5.10" departSpeed="0.00" departDelay="0.00" arrival="243.00" arrivalLane="D0right0_0" arrivalPos="286.40" arrivalSpeed="11.27" duration="85.00" routeLength="894.86" waitingTime="0.00" waitingCount="0" stopTime="0.00" timeLoss="7.62" rerouteNo="0" devices="tripinfo_39" vType="DEFAULT_VEHTYPE" speedFactor="0.85" vaporized=""/>
    <tripinfo id="25" depart="74.00" departLane="left3A3_0" departPos="5.10" departSpeed="0.00" departDelay="0.00" arrival="244.00" arrivalLane="A0left0_0" arrivalPos="286.40" arrivalSpeed="14.20" duration="170.00" routeLength="1461.60" waitingTime="45.00" waitingCount="3" stopTime="0.00" timeLoss="72.64" rerouteNo="0" devices="tripinfo_25" vType="DEFAULT_VEHTYPE" speedFactor="1.10" vaporized=""/>
    <tripinfo id="16" depart="42.00" departLane="left2A2_0" departPos="5.10" departSpeed="0.00" departDelay="0.00" arrival="260.00" arrivalLane="A3left3_0" arrivalPos="286.40" arrivalSpeed="13.50" duration="218.00" routeLength="894.86" waitingTime="136.00" waitingCount="2" stopTime="0.00" timeLoss="152.17" rerouteNo="0" devices="tripinfo_16" vType="DEFAULT_VEHTYPE" speedFactor="1.00" vaporized=""/>
    <tripinfo id="17" depart="45.00" departLane="top2C3_0" departPos="5.10" departSpeed="0.00" departDelay="0.00" arrival="260.00" arrivalLane="A2left2_0" arrivalPos="286.40" arrivalSpeed="12.82" duration="215.00" routeLength="1479.94" waitingTime="80.00" waitingCount="3" stopTime="0.00" timeLoss="103.84" rerouteNo="0" devices="tripinfo_17" vType="DEFAULT_VEHTYPE" speedFactor="0.97" vaporized=""/>
    <tripinfo id="14" depart="39.00" departLane="left0A0_0" departPos="5.10" departSpeed="0.00" departDelay="0.00" arrival="262.00" arrivalLane="D0right0_0" arrivalPos="286.40" arrivalSpeed="11.89" duration="223.00" routeLength="1495.58" waitingTime="76.00" waitingCount="3" stopTime="0.00" timeLoss="101.26" rerouteNo="0" devices="tripinfo_14" vType="DEFAULT_VEHTYPE" speedFactor="0.89" vaporized=""/>
    <tripinfo id="15" depart="42.00" departLane="bottom1B0_0" departPos="5.10" departSpeed="0.00" departDelay="0.00" arrival="267.00" arrivalLane="C3top2_0" arrivalPos="286.40" arrivalSpeed="14.38" duration="225.00" routeLength="1782.72" waitingTime="73.00" waitingCount="4" stopTime="0.00" timeLoss="108.81" rerouteNo="0" devices="tripinfo_15" vType="DEFAULT_VEHTYPE" speedFactor="1.12" vaporized=""/>
    <tripinfo id="28" depart="98.00" departLane="top2C3_0" departPos="5.10" departSpeed="0.00" departDelay="0.00" arrival="267.00" arrivalLane="A1left1_0" arrivalPos="286.40" arrivalSpeed="14.35" duration="169.00" routeLength="1780.11" waitingTime="24.00" waitingCount="3" stopTime="0.00" timeLoss="53.42" rerouteNo="0" devices="tripinfo_28" vType="DEFAULT_VEHTYPE" speedFactor="1.12" vaporized=""/>
    <tripinfo id="29" depart="108.00" departLane="right1D1_0" departPos="5.10" departSpeed="0.00" departDelay="0.00" arrival="268.00" arrivalLane="C0bottom2_0" arrivalPos="286.40" arrivalSpeed="13.66" duration="160.00" routeLength="1195.18" waitingTime="62.00" waitingCount="2" stopTime="0.00" timeLoss="78.95" rerouteNo="0" devices="tripinfo_29" vType="DEFAULT_VEHTYPE" speedFactor="1.07" vaporized=""/>
    <tripinfo id="1" depart="7.00" departLane="bottom3D0_0" departPos="5.10" departSpeed="0.00" departDelay="0.00" arrival="269.00" arrivalLane="A0bottom0_0" arrivalPos="286.40" arrivalSpeed="13.96" duration="262.00" routeLength="1497.83" waitingTime="125.00" waitingCount="4" stopTime="0.00" timeLoss="153.99" rerouteNo="0" devices="tripinfo_1" vType="DEFAULT_VEHTYPE" speedFactor="1.01" vaporized=""/>
    <tripinfo id="21" depart="62.00" departLane="left0A0_0" departPos="5.10" departSpeed="0.00" departDelay="0.00" arrival="275.00" arrivalLane="A0left0_0" arrivalPos="286.40" arrivalSpeed="16.23" duration="213.00" routeLength="1745.91" waitingTime="71.00" waitingCount="4" stopTime="0.00" timeLoss="110.06" rerouteNo="0" devices="tripinfo_21" vType="DEFAULT_VEHTYPE" speedFactor="1.26" vaporized=""/>
    <tripinfo id="13" depart="34.00" departLane="right2D2_0" departPos="5.10" departSpeed="0.00" departDelay="0.00" arrival="278.00" arrivalLane="B3top1_0" arrivalPos="286.40" arrivalSpeed="14.53" duration="244.00" routeLength="1479.94" waitingTime="113.00" waitingCount="4" stopTime="0.00" timeLoss="144.62" rerouteNo="0" devices="tripinfo_13" vType="DEFAULT_VEHTYPE" speedFactor="1.08" vaporized=""/>
    <tripinfo id="24" depart="71.00" departLane="right2D2_0" departPos="5.10" departSpeed="0.00" departDelay="0.00" arrival="280.00" arrivalLane="A2left2_0" arrivalPos="286.40" arrivalSpeed="13.13" duration="209.00" routeLength="1495.58" waitingTime="67.00" waitingCount="3" stopTime="0.00" timeLoss="96.32" rerouteNo="0" devices="tripinfo_24" vType="DEFAULT_VEHTYPE" speedFactor="0.96" vaporized=""/>
    <tripinfo id="57" depart="242.00" departLane="top0A3_0" departPos="5.10" departSpeed="0.00" departDelay="0.00" arrival="299.00" arrivalLane="A3left3_0" arrivalPos="286.40" arrivalSpeed="12.51" duration="57.00" routeLength="576.73" waitingTime="1.00" waitingCount="1" stopTime="0.00" timeLoss="10.34" rerouteNo="0" devices="tripinfo_57" vType="DEFAULT_VEHTYPE" speedFactor="0.91" vaporized=""/>
    <tripinfo id="2" depart="9.00" departLane="bottom0A0_0" departPos="5.10" departSpeed="0.00" departDelay="0.00" arrival="307.00" arrivalLane="B3top1_0" arrivalPos="286.40" arrivalSpeed="15.14" duration="298.00" routeLength="1782.72" waitingTime="149.00" waitingCount="4" stopTime="0.00" timeLoss="182.90" rerouteNo="0" devices="tripinfo_2" vType="DEFAULT_VEHTYPE" speedFactor="1.13" vaporized=""/>
    <tripinfo id="8" depart="25.00" departLane="right3D3_0" departPos="5.10" departSpeed="0.00" departDelay="0.00" arrival="317.00" arrivalLane="D0bottom3_0" arrivalPos="286.40" arrivalSpeed="15.18" duration="292.00" routeLength="1495.35" waitingTime="166.00" waitingCount="3" stopTime="0.00" timeLoss="194.64" rerouteNo="0" devices="tripinfo_8" vType="DEFAULT_VEHTYPE" speedFactor="1.12" vaporized=""/>
    <tripinfo id="33" depart="120.00" departLane="left3A3_0" departPos="5.10" departSpeed="0.00" departDelay="0.00" arrival="319.00" arrivalLane="B3top1_0" arrivalPos="286.40" arrivalSpeed="13.92" duration="199.00" routeLength="897.72" waitingTime="123.00" waitingCount="1" stopTime="0.00" timeLoss="134.05" rerouteNo="0" devices="tripinfo_33" vType="DEFAULT_VEHTYPE" speedFactor="1.01" vaporized=""/>
    <tripinfo id="20" depart="61.00" departLane="top2C3_0" departPos="5.10" departSpeed="0.00" departDelay="0.00" arrival="322.00" arrivalLane="D0bottom3_0" arrivalPos="286.40" arrivalSpeed="12.49" duration="261.00" routeLength="1782.59" waitingTime="91.00" waitingCount="4" stopTime="0.00" timeLoss="123.12" rerouteNo="0" devices="tripinfo_20" vType="DEFAULT_VEHTYPE" speedFactor="0.94" vaporized=""/>
    <tripinfo id="19" depart="55.00" departLane="left3A3_0" departPos="5.10" departSpeed="0.00" departDelay="0.00" arrival="328.00" arrivalLane="C0bottom2_0" arrivalPos="286.40" arrivalSpeed="15.00" duration="273.00" routeLength="2080.28" waitingTime="98.00" waitingCount="5" stopTime="0.00" timeLoss="135.65" rerouteNo="0" devices="tripinfo_19" vType="DEFAULT_VEHTYPE" speedFactor="1.10" vaporized=""/>
    <tripinfo id="34" depart="123.00" departLane="bottom1B0_0" departPos="5.10" departSpeed="0.00" departDelay="2.00" arrival="329.00" arrivalLane="A1left1_0" arrivalPos="286.40" arrivalSpeed="13.50" duration="206.00" routeLength="1195.18" waitingTime="95.00" waitingCount="3" stopTime="0.00" timeLoss="120.18" rerouteNo="0" devices="tripinfo_34" vType="DEFAULT_VEHTYPE" speedFactor="1.02" vaporized=""/>
    <tripinfo id="38" depart="149.00" departLane="right1D1_0" departPos="5.10" departSpeed="0.00" departDelay="0.00" arrival="329.00" arrivalLane="A2left2_0" arrivalPos="286.40" arrivalSpeed="14.45" duration="180.00" routeLength="1782.72" waitingTime="26.00" waitingCount="3" stopTime="0.00" timeLoss="54.42" rerouteNo="0" devices="tripinfo_38" vType="DEFAULT_VEHTYPE" speedFactor="1.04" vaporized=""/>
    <tripinfo id="27" depart="88.00" departLane="right3D3_0" departPos="5.10" departSpeed="0.00" departDelay="0.00" arrival="330.00" arrivalLane="C0bottom2_0" arrivalPos="286.40" arrivalSpeed="14.72" duration="242.00" routeLength="1795.52" waitingTime="96.00" waitingCount="3" stopTime="0.00" timeLoss="123.81" rerouteNo="0" devices="tripinfo_27" vType="DEFAULT_VEHTYPE" speedFactor="1.11" vaporized=""/>
    <tripinfo id="58" depart="247.00" departLane="left0A0_0" departPos="5.10" departSpeed="0.00" departDelay="0.00" arrival="336.00" arrivalLane="B0bottom1_0" arrivalPos="286.40" arrivalSpeed="12.33" duration="89.00" routeLength="876.90" waitingTime="7.00" waitingCount="1" stopTime="0.00" timeLoss="20.01" rerouteNo="0" devices="tripinfo_58" vType="DEFAULT_VEHTYPE" speedFactor="0.93" vaporized=""/>
    <tripinfo id="60" depart="261.00" departLane="left0A0_0" departPos="5.10" departSpeed="0.00" departDelay="0.00" arrival="339.00" arrivalLane="B0bottom1_0" arrivalPos="286.40" arrivalSpeed="12.53" duration="78.00" routeLength="876.90" waitingTime="0.00" waitingCount="0" stopTime="0.00" timeLoss="9.46" rerouteNo="0" devices="tripinfo_60" vType="DEFAULT_VEHTYPE" speedFactor="0.95" vaporized=""/>
    <tripinfo id="18" depart="48.00" departLane="top2C3_0" departPos="5.10" departSpeed="0.00" departDelay="1.00" arrival="369.00" arrivalLane="A0bottom0_0" arrivalPos="286.40" arrivalSpeed="13.70" duration="321.00" routeLength="2082.76" waitingTime="132.00" waitingCount="5" stopTime="0.00" timeLoss="172.90" rerouteNo="0" devices="tripinfo_18" vType="DEFAULT_VEHTYPE" speedFactor="1.02" vaporized=""/>
    <tripinfo id="12" depart="35.00" departLane="top3D3_0" departPos="5.10" departSpeed="0.00" departDelay="2.00" arrival="383.00" arrivalLane="D0right0_0" arrivalPos="286.40" arrivalSpeed="11.02" duration="348.00" routeLength="1498.06" waitingTime="198.00" waitingCount="3" stopTime="0.00" timeLoss="223.29" rerouteNo="0" devices="tripinfo_12" vType="DEFAULT_VEHTYPE" speedFactor="0.87" vaporized=""/>
    <tripinfo id="32" depart="120.00" departLane="bottom1B0_0" departPos="5.10" departSpeed="0.00" departDelay="0.00" arrival="388.00" arrivalLane="D2right2_0" arrivalPos="286.40" arrivalSpeed="13.74" duration="268.00" routeLength="1780.11" waitingTime="115.00" waitingCount="4" stopTime="0.00" timeLoss="145.78" rerouteNo="0" devices="tripinfo_32" vType="DEFAULT_VEHTYPE" speedFactor="1.06" vaporized=""/>
    <tripinfo id="41" depart="168.00" departLane="bottom0A0_0" departPos="5.10" departSpeed="0.00" departDelay="0.00" arrival="392.00" arrivalLane="D2right2_0" arrivalPos="286.40" arrivalSpeed="12.82" duration="224.00" routeLength="2080.28" waitingTime="38.00" waitingCount="3" stopTime="0.00" timeLoss="69.29" rerouteNo="0" devices="tripinfo_41" vType="DEFAULT_VEHTYPE" speedFactor="0.97" vaporized=""/>
    <tripinfo id="53" depart="215.00" departLane="top3D3_0" departPos="5.10" departSpeed="0.00" departDelay="0.00" arrival="394.00" arrivalLane="D3top3_0" arrivalPos="286.40" arrivalSpeed="10.77" duration="179.00" routeLength="1748.75" waitingTime="3.00" waitingCount="3" stopTime="0.00" timeLoss="28.81" rerouteNo="0" devices="tripinfo_53" vType="DEFAULT_VEHTYPE" speedFactor="0.85" vaporized=""/>
    <tripinfo id="51" depart="199.00" departLane="left1A1_0" departPos="5.10" departSpeed="0.00" departDelay="0.00" arrival="396.00" arrivalLane="A0bottom0_0" arrivalPos="286.40" arrivalSpeed="15.53" duration="197.00" routeLength="879.60" waitingTime="130.00" waitingCount="1" stopTime="0.00" timeLoss="142.84" rerouteNo="0" devices="tripinfo_51" vType="DEFAULT_VEHTYPE" speedFactor="1.20" vaporized=""/>
    <tripinfo id="48" depart="195.00" departLane="top3D3_0" departPos="5.10" departSpeed="0.00" departDelay="0.00" arrival="398.00" arrivalLane="B0bottom1_0" arrivalPos="286.40" arrivalSpeed="14.86" duration="203.00" routeLength="2082.76" waitingTime="29.00" waitingCount="4" stopTime="0.00" timeLoss="62.36" rerouteNo="0" devices="tripinfo_48" vType="DEFAULT_VEHTYPE" speedFactor="1.07" vaporized=""/>
    <tripinfo id="63" depart="280.00" departLane="right3D3_0" departPos="5.10" departSpeed="0.00" departDelay="0.00" arrival="405.00" arrivalLane="C3top2_0" arrivalPos="286.40" arrivalSpeed="9.69" duration="125.00" routeLength="876.90" waitingTime="19.00" waitingCount="2" stopTime="0.00" timeLoss="35.83" rerouteNo="0" devices="tripinfo_63" vType="DEFAULT_VEHTYPE" speedFactor="0.72" vaporized=""/>
    <tripinfo id="61" depart="273.00" departLane="right1D1_0" departPos="5.10" departSpeed="0.00" departDelay="0.00" arrival="407.00" arrivalLane="D3top3_0" arrivalPos="286.40" arrivalSpeed="15.95" duration="134.00" routeLength="1179.77" waitingTime="39.00" waitingCount="2" stopTime="0.00" timeLoss="60.20" rerouteNo="0" devices="tripinfo_61" vType="DEFAULT_VEHTYPE" speedFactor="1.17" vaporized=""/>
    <tripinfo id="46" depart="192.00" departLane="top2C3_0" departPos="5.10" departSpeed="0.00" departDelay="0.00" arrival="411.00" arrivalLane="A3left3_0" arrivalPos="286.40" arrivalSpeed="13.48" duration="219.00" routeLength="1179.77" waitingTime="116.00" waitingCount="2" stopTime="0.00" timeLoss="133.88" rerouteNo="0" devices="tripinfo_46" vType="DEFAULT_VEHTYPE" speedFactor="1.01" vaporized=""/>
    <tripinfo id="56" depart="228.00" departLane="right3D3_0" departPos="5.10" departSpeed="0.00" departDelay="0.00" arrival="413.00" arrivalLane="D0bottom3_0" arrivalPos="286.40" arrivalSpeed="12.78" duration="185.00" routeLength="1495.35" waitingTime="49.00" waitingCount="3" stopTime="0.00" timeLoss="72.96" rerouteNo="0" devices="tripinfo_56" vType="DEFAULT_VEHTYPE" speedFactor="0.97" vaporized=""/>
    <tripinfo id="45" depart="192.00" departLane="top0A3_0" departPos="5.10" departSpeed="0.00" departDelay="0.00" arrival="414.00" arrivalLane="A1left1_0" arrivalPos="286.40" arrivalSpeed="13.26" duration="222.00" routeLength="1177.07" waitingTime="111.00" waitingCount="2" stopTime="0.00" timeLoss="132.24" rerouteNo="0" devices="tripinfo_45" vType="DEFAULT_VEHTYPE" speedFactor="0.96" vaporized=""/>
    <tripinfo id="73" depart="334.00" departLane="top3D3_0" departPos="5.10" departSpeed="0.00" departDelay="0.00" arrival="420.00" arrivalLane="C3top2_0" arrivalPos="286.40" arrivalSpeed="12.09" duration="86.00" routeLength="858.56" waitingTime="2.00" waitingCount="2" stopTime="0.00" timeLoss="18.12" rerouteNo="0" devices="tripinfo_73" vType="DEFAULT_VEHTYPE" speedFactor="0.93" vaporized=""/>
    <tripinfo id="75" depart="346.00" departLane="left1A1_0" departPos="5.10" departSpeed="0.00" departDelay="0.00" arrival="428.00" arrivalLane="A0bottom0_0" arrivalPos="286.40" arrivalSpeed="13.93" duration="82.00" routeLength="879.60" waitingTime="3.00" waitingCount="2" stopTime="0.00" timeLoss="20.18" rerouteNo="0" devices="tripinfo_75" vType="DEFAULT_VEHTYPE" speedFactor="1.04" vaporized=""/>
    <tripinfo id="84" depart="369.00" departLane="left3A3_0" departPos="5.10" departSpeed="0.00" departDelay="0.00" arrival="429.00" arrivalLane="A3top0_0" arrivalPos="286.40" arrivalSpeed="13.78" duration="60.00" routeLength="597.55" waitingTime="6.00" waitingCount="1" stopTime="0.00" timeLoss="17.19" rerouteNo="0" devices="tripinfo_84" vType="DEFAULT_VEHTYPE" speedFactor="1.02" vaporized=""/>
    <tripinfo id="26" depart="81.00" departLane="bottom1B0_0" departPos="5.10" departSpeed="0.00" departDelay="0.00" arrival="431.00" arrivalLane="D3top3_0" arrivalPos="286.40" arrivalSpeed="12.59" duration="350.00" routeLength="2082.76" waitingTime="145.00" waitingCount="6" stopTime="0.00" timeLoss="190.46" rerouteNo="0" devices="tripinfo_26" vType="DEFAULT_VEHTYPE" speedFactor="0.95" vaporized=""/>
    <tripinfo id="9" depart="26.00" departLane="bottom3D0_0" departPos="5.10" departSpeed="0.00" departDelay="0.00" arrival="447.00" arrivalLane="A3top0_0" arrivalPos="286.40" arrivalSpeed="15.28" duration="421.00" routeLength="2380.22" waitingTime="225.00" waitingCount="5" stopTime="0.00" timeLoss="270.74" rerouteNo="0" devices="tripinfo_9" vType="DEFAULT_VEHTYPE" speedFactor="1.15" vaporized=""/>
    <tripinfo id="23" depart="66.00" departLane="right0D0_0" departPos="5.10" departSpeed="0.00" departDelay="0.00" arrival="450.00" arrivalLane="A3left3_0" arrivalPos="286.40" arrivalSpeed="12.65" duration="384.00" routeLength="2382.93" waitingTime="153.00" waitingCount="5" stopTime="0.00" timeLoss="205.92" rerouteNo="0" devices="tripinfo_23" vType="DEFAULT_VEHTYPE" speedFactor="0.97" vaporized=""/>
    <tripinfo id="37" depart="134.00" departLane="top0A3_0" departPos="5.10" departSpeed="0.00" departDelay="0.00" arrival="450.00" arrivalLane="C3top2_0" arrivalPos="286.40" arrivalSpeed="12.48" duration="316.00" routeLength="1197.66" waitingTime="204.00" waitingCount="3" stopTime="0.00" timeLoss="227.24" rerouteNo="0" devices="tripinfo_37" vType="DEFAULT_VEHTYPE" speedFactor="0.99" vaporized=""/>
    <tripinfo id="54" depart="219.00" departLane="left0A0_0" departPos="5.10" departSpeed="0.00" departDelay="0.00" arrival="450.00" arrivalLane="D2right2_0" arrivalPos="286.40" arrivalSpeed="12.82" duration="231.00" routeLength="2080.05" waitingTime="44.00" waitingCount="3" stopTime="0.00" timeLoss="69.86" rerouteNo="0" devices="tripinfo_54" vType="DEFAULT_VEHTYPE" speedFactor="0.94" vaporized=""/>
    <tripinfo id="69" depart="297.00" departLane="top2C3_0" departPos="5.10" departSpeed="0.00" departDelay="0.00" arrival="451.00" arrivalLane="C3top2_1" arrivalPos="286.40" arrivalSpeed="13.29" duration="154.00" routeLength="1748.75" waitingTime="3.00" waitingCount="3" stopTime="0.00" timeLoss="31.22" rerouteNo="0" devices="tripinfo_69" vType="DEFAULT_VEHTYPE" speedFactor="1.05" vaporized=""/>
    <tripinfo id="59" depart="252.00" departLane="bottom3D0_0" departPos="5.10" departSpeed="0.00" departDelay="0.00" arrival="452.00" arrivalLane="A1left1_1" arrivalPos="286.40" arrivalSpeed="12.74" duration="200.00" routeLength="1795.52" waitingTime="35.00" waitingCount="3" stopTime="0.00" timeLoss="64.27" rerouteNo="0" devices="tripinfo_59" vType="DEFAULT_VEHTYPE" speedFactor="0.96" vaporized=""/>
    <tripinfo id="31" depart="114.00" departLane="right2D2_0" departPos="5.10" departSpeed="0.00" departDelay="0.00" arrival="454.00" arrivalLane="A1left1_0" arrivalPos="286.40" arrivalSpeed="11.27" duration="340.00" routeLength="1782.59" waitingTime="150.00" waitingCount="4" stopTime="0.00" timeLoss="181.31" rerouteNo="0" devices="tripinfo_31" vType="DEFAULT_VEHTYPE" speedFactor="0.82" vaporized=""/>
    <tripinfo id="44" depart="189.00" departLane="top0A3_0" departPos="5.10" departSpeed="0.00" departDelay="0.00" arrival="456.00" arrivalLane="A0left0_0" arrivalPos="286.40" arrivalSpeed="14.76" duration="267.00" routeLength="1477.24" waitingTime="135.00" waitingCount="3" stopTime="0.00" timeLoss="167.24" rerouteNo="0" devices="tripinfo_44" vType="DEFAULT_VEHTYPE" speedFactor="1.07" vaporized=""/>
    <tripinfo id="40" depart="165.00" departLane="bottom0A0_0" departPos="5.10" departSpeed="0.00" departDelay="0.00" arrival="468.00" arrivalLane="C3top2_0" arrivalPos="286.40" arrivalSpeed="11.06" duration="303.00" routeLength="2082.76" waitingTime="103.00" waitingCount="4" stopTime="0.00" timeLoss="132.75" rerouteNo="0" devices="tripinfo_40" vType="DEFAULT_VEHTYPE" speedFactor="0.89" vaporized=""/>
    <tripinfo id="47" depart="193.00" departLane="left2A2_0" departPos="5.10" departSpeed="0.00" departDelay="0.00" arrival="471.00" arrivalLane="B3top1_0" arrivalPos="286.40" arrivalSpeed="13.10" duration="278.00" routeLength="1195.18" waitingTime="161.00" waitingCount="3" stopTime="0.00" timeLoss="186.58" rerouteNo="0" devices="tripinfo_47" vType="DEFAULT_VEHTYPE" speedFactor="0.96" vaporized=""/>
    <tripinfo id="52" depart="210.00" departLane="right1D1_0" departPos="5.10" departSpeed="0.00" departDelay="0.00" arrival="477.00" arrivalLane="B0bottom1_0" arrivalPos="286.40" arrivalSpeed="14.67" duration="267.00" routeLength="1495.35" waitingTime="136.00" waitingCount="4" stopTime="0.00" timeLoss="168.33" rerouteNo="0" devices="tripinfo_52" vType="DEFAULT_VEHTYPE" speedFactor="1.10" vaporized=""/>
    <tripinfo id="62" depart="280.00" departLane="bottom2C0_0" departPos="5.10" departSpeed="0.00" departDelay="0.00" arrival="478.00" arrivalLane="D1right1_0" arrivalPos="286.40" arrivalSpeed="14.35" duration="198.00" routeLength="1179.77" waitingTime="92.00" waitingCount="3" stopTime="0.00" timeLoss="117.20" rerouteNo="0" devices="tripinfo_62" vType="DEFAULT_VEHTYPE" speedFactor="1.07" vaporized=""/>
    <tripinfo id="55" depart="220.00" departLane="bottom0A0_0" departPos="5.10" departSpeed="0.00" departDelay="0.00" arrival="479.00" arrivalLane="D1right1_1" arrivalPos="286.40" arrivalSpeed="14.29" duration="259.00" routeLength="1780.11" waitingTime="110.00" waitingCount="4" stopTime="0.00" timeLoss="143.50" rerouteNo="0" devices="tripinfo_55" vType="DEFAULT_VEHTYPE" speedFactor="1.12" vaporized=""/>
    <tripinfo id="78" depart="354.00" departLane="bottom0A0_0" departPos="5.10" departSpeed="0.00" departDelay="0.00" arrival="487.00" arrivalLane="C0bottom2_0" arrivalPos="286.40" arrivalSpeed="10.36" duration="133.00" routeLength="1161.43" waitingTime="8.00" waitingCount="3" stopTime="0.00" timeLoss="31.18" rerouteNo="0" devices="tripinfo_78" vType="DEFAULT_VEHTYPE" speedFactor="0.83" vaporized=""/>
    <tripinfo id="79" depart="355.00" departLane="left0A0_0" departPos="5.10" departSpeed="0.00" departDelay="0.00" arrival="489.00" arrivalLane="C0bottom2_0" arrivalPos="286.40" arrivalSpeed="12.92" duration="134.00" routeLength="1177.07" waitingTime="16.00" waitingCount="3" stopTime="0.00" timeLoss="48.83" rerouteNo="0" devices="tripinfo_79" vType="DEFAULT_VEHTYPE" speedFactor="1.01" vaporized=""/>
    <tripinfo id="42" depart="169.00" departLane="top0A3_0" departPos="5.10" departSpeed="0.00" departDelay="0.00" arrival="503.00" arrivalLane="D3right3_0" arrivalPos="286.40" arrivalSpeed="11.08" duration="334.00" routeLength="1495.35" waitingTime="176.00" waitingCount="4" stopTime="0.00" timeLoss="204.80" rerouteNo="0" devices="tripinfo_42" vType="DEFAULT_VEHTYPE" speedFactor="0.84" vaporized=""/>
    <tripinfo id="76" depart="353.00" departLane="bottom3D0_0" departPos="5.10" departSpeed="0.00" departDelay="0.00" arrival="505.00" arrivalLane="D3right3_0" arrivalPos="286.40" arrivalSpeed="14.86" duration="152.00" routeLength="1477.24" waitingTime="26.00" waitingCount="3" stopTime="0.00" timeLoss="52.92" rerouteNo="0" devices="tripinfo_76" vType="DEFAULT_VEHTYPE" speedFactor="1.08" vaporized=""/>
    <tripinfo id="67" depart="288.00" departLane="left1A1_0" departPos="5.10" departSpeed="0.00" departDelay="0.00" arrival="539.00" arrivalLane="C3top2_0" arrivalPos="286.40" arrivalSpeed="13.88" duration="251.00" routeLength="1795.52" waitingTime="86.00" waitingCount="5" stopTime="0.00" timeLoss="121.02" rerouteNo="0" devices="tripinfo_67" vType="DEFAULT_VEHTYPE" speedFactor="1.01" vaporized=""/>
    <tripinfo id="66" depart="285.00" departLane="bottom1B0_0" departPos="5.10" departSpeed="0.00" departDelay="0.00" arrival="541.00" arrivalLane="A1left1_0" arrivalPos="286.40" arrivalSpeed="11.69" duration="256.00" routeLength="1195.18" waitingTime="143.00" waitingCount="2" stopTime="0.00" timeLoss="159.39" rerouteNo="0" devices="tripinfo_66" vType="DEFAULT_VEHTYPE" speedFactor="0.90" vaporized=""/>
    <tripinfo id="92" depart="401.00" departLane="right2D2_0" departPos="5.10" departSpeed="0.00" departDelay="0.00" arrival="551.00" arrivalLane="D0right0_0" arrivalPos="286.40" arrivalSpeed="13.30" duration="150.00" routeLength="1197.66" waitingTime="48.00" waitingCount="2" stopTime="0.00" timeLoss="66.78" rerouteNo="0" devices="tripinfo_92" vType="DEFAULT_VEHTYPE" speedFactor="1.05" vaporized=""/>