<?xml version="1.0" encoding="UTF-8"?>

<!-- generated on 12/10/21 13:59:46 by Eclipse SUMO sumo Version 1.7.0
<configuration xmlns:xsi="http://www.w3.org/2001/XMLSchema-instance" xsi:noNamespaceSchemaLocation="http://sumo.dlr.de/xsd/sumoConfiguration.xsd">

    <input>
        <net-file value="C:\Users\longs\Desktop\RESCO-main\environments\grid4x4\grid4x4.net.xml"/>
        <route-files value="C:\Users\longs\Desktop\RESCO-main\environments\grid4x4\grid4x4_35.rou.xml"/>
    </input>

    <output>
        <tripinfo-output value="C:\Users\longs\Desktop\RESCO-main\logs\STOCHASTIC-tr1-grid4x4-0-mplight-wait\tripinfo_35.xml"/>
        <tripinfo-output.write-unfinished value="true"/>
    </output>

    <processing>
        <time-to-teleport value="-1"/>
    </processing>

    <report>
        <no-warnings value="true"/>
        <no-step-log value="true"/>
    </report>

    <traci_server>
        <remote-port value="59329"/>
    </traci_server>

    <random_number>
        <random value="true"/>
    </random_number>

</configuration>
-->

<tripinfos xmlns:xsi="http://www.w3.org/2001/XMLSchema-instance" xsi:noNamespaceSchemaLocation="http://sumo.dlr.de/xsd/tripinfo_file.xsd">
    <tripinfo id="11" depart="38.00" departLane="bottom3D0_0" departPos="5.10" departSpeed="0.00" departDelay="0.00" arrival="87.00" arrivalLane="D0right0_0" arrivalPos="286.40" arrivalSpeed="15.18" duration="49.00" routeLength="576.73" waitingTime="1.00" waitingCount="1" stopTime="0.00" timeLoss="11.18" rerouteNo="0" devices="tripinfo_11" vType="DEFAULT_VEHTYPE" speedFactor="1.11" vaporized=""/>
    <tripinfo id="8" depart="22.00" departLane="left2A2_0" departPos="5.10" departSpeed="0.00" departDelay="0.00" arrival="95.00" arrivalLane="A1left1_0" arrivalPos="286.40" arrivalSpeed="14.02" duration="73.00" routeLength="858.56" waitingTime="1.00" waitingCount="1" stopTime="0.00" timeLoss="15.25" rerouteNo="0" devices="tripinfo_8" vType="DEFAULT_VEHTYPE" speedFactor="1.10" vaporized=""/>
    <tripinfo id="4" depart="14.00" departLane="bottom1B0_0" departPos="5.10" departSpeed="0.00" departDelay="2.00" arrival="120.00" arrivalLane="D0bottom3_0" arrivalPos="286.40" arrivalSpeed="12.88" duration="106.00" routeLength="1161.43" waitingTime="2.00" waitingCount="2" stopTime="0.00" timeLoss="19.48" rerouteNo="0" devices="tripinfo_4" vType="DEFAULT_VEHTYPE" speedFactor="0.99" vaporized=""/>
    <tripinfo id="1" depart="5.00" departLane="right3D3_0" departPos="5.10" departSpeed="0.00" departDelay="0.00" arrival="144.00" arrivalLane="D0bottom3_0" arrivalPos="286.40" arrivalSpeed="11.97" duration="139.00" routeLength="1495.35" waitingTime="7.00" waitingCount="1" stopTime="0.00" timeLoss="23.57" rerouteNo="0" devices="tripinfo_1" vType="DEFAULT_VEHTYPE" speedFactor="0.94" vaporized=""/>
    <tripinfo id="12" depart="47.00" departLane="left2A2_0" departPos="5.10" departSpeed="0.00" departDelay="0.00" arrival="161.00" arrivalLane="A0left0_0" arrivalPos="286.40" arrivalSpeed="14.94" duration="114.00" routeLength="1161.43" waitingTime="16.00" waitingCount="2" stopTime="0.00" timeLoss="40.34" rerouteNo="0" devices="tripinfo_12" vType="DEFAULT_VEHTYPE" speedFactor="1.16" vaporized=""/>
    <tripinfo id="6" depart="18.00" departLane="left1A1_0" departPos="5.10" departSpeed="0.00" departDelay="0.00" arrival="171.00" arrivalLane="C0bottom2_0" arrivalPos="286.40" arrivalSpeed="12.75" duration="153.00" routeLength="1479.94" waitingTime="17.00" waitingCount="3" stopTime="0.00" timeLoss="42.16" rerouteNo="0" devices="tripinfo_6" vType="DEFAULT_VEHTYPE" speedFactor="0.97" vaporized=""/>
    <tripinfo id="22" depart="97.00" departLane="top2C3_0" departPos="5.10" departSpeed="0.00" departDelay="0.00" arrival="174.00" arrivalLane="B3top1_0" arrivalPos="286.40" arrivalSpeed="13.96" duration="77.00" routeLength="858.56" waitingTime="2.00" waitingCount="2" stopTime="0.00" timeLoss="17.34" rerouteNo="0" devices="tripinfo_22" vType="DEFAULT_VEHTYPE" speedFactor="1.05" vaporized=""/>
    <tripinfo id="2" depart="6.00" departLane="bottom2C0_0" departPos="5.10" departSpeed="0.00" departDelay="0.00" arrival="182.00" arrivalLane="C0bottom2_0" arrivalPos="286.40" arrivalSpeed="11.59" duration="176.00" routeLength="1748.75" waitingTime="5.00" waitingCount="3" stopTime="0.00" timeLoss="29.40" rerouteNo="0" devices="tripinfo_2" vType="DEFAULT_VEHTYPE" speedFactor="0.87" vaporized=""/>
    <tripinfo id="7" depart="21.00" departLane="left3A3_0" departPos="5.10" departSpeed="0.00" departDelay="0.00" arrival="199.00" arrivalLane="A3left3_0" arrivalPos="286.40" arrivalSpeed="14.52" duration="178.00" routeLength="1748.75" waitingTime="25.00" waitingCount="4" stopTime="0.00" timeLoss="55.85" rerouteNo="0" devices="tripinfo_7" vType="DEFAULT_VEHTYPE" speedFactor="1.05" vaporized=""/>
    <tripinfo id="16" depart="80.00" departLane="bottom1B0_0" departPos="5.10" departSpeed="0.00" departDelay="0.00" arrival="200.00" arrivalLane="A0bottom0_0" arrivalPos="286.40" arrivalSpeed="12.09" duration="120.00" routeLength="894.86" waitingTime="36.00" waitingCount="2" stopTime="0.00" timeLoss="51.01" rerouteNo="0" devices="tripinfo_16" vType="DEFAULT_VEHTYPE" speedFactor="0.95" vaporized=""/>
    <tripinfo id="14" depart="70.00" departLane="top3D3_0" departPos="5.10" departSpeed="0.00" departDelay="0.00" arrival="239.00" arrivalLane="C0bottom2_0" arrivalPos="286.40" arrivalSpeed="13.64" duration="169.00" routeLength="1782.72" waitingTime="13.00" waitingCount="2" stopTime="0.00" timeLoss="38.07" rerouteNo="0" devices="tripinfo_14" vType="DEFAULT_VEHTYPE" speedFactor="0.99" vaporized=""/>
    <tripinfo id="36" depart="152.00" departLane="right0D0_0" departPos="5.10" departSpeed="0.00" departDelay="2.00" arrival="241.00" arrivalLane="D1right1_0" arrivalPos="286.40" arrivalSpeed="12.29" duration="89.00" routeLength="858.56" waitingTime="2.00" waitingCount="2" stopTime="0.00" timeLoss="17.54" rerouteNo="0" devices="tripinfo_36" vType="DEFAULT_VEHTYPE" speedFactor="0.89" vaporized=""/>
    <tripinfo id="38" depart="156.00" departLane="bottom3D0_0" departPos="5.10" departSpeed="0.00" departDelay="0.00" arrival="243.00" arrivalLane="D1right1_0" arrivalPos="286.40" arrivalSpeed="15.17" duration="87.00" routeLength="876.90" waitingTime="12.00" waitingCount="2" stopTime="0.00" timeLoss="29.49" rerouteNo="0" devices="tripinfo_38" vType="DEFAULT_VEHTYPE" speedFactor="1.11" vaporized=""/>
    <tripinfo id="47" depart="189.00" departLane="bottom3D0_0" departPos="5.10" departSpeed="0.00" departDelay="0.00" arrival="244.00" arrivalLane="D0right0_0" arrivalPos="286.40" arrivalSpeed="13.58" duration="55.00" routeLength="576.73" waitingTime="1.00" waitingCount="1" stopTime="0.00" timeLoss="11.11" rerouteNo="0" devices="tripinfo_47" vType="DEFAULT_VEHTYPE" speedFactor="0.98" vaporized=""/>
    <tripinfo id="18" depart="91.00" departLane="left3A3_0" departPos="5.10" departSpeed="0.00" departDelay="0.00" arrival="253.00" arrivalLane="D3top3_0" arrivalPos="286.40" arrivalSpeed="11.52" duration="162.00" routeLength="1498.06" waitingTime="14.00" waitingCount="3" stopTime="0.00" timeLoss="37.81" rerouteNo="0" devices="tripinfo_18" vType="DEFAULT_VEHTYPE" speedFactor="0.88" vaporized=""/>
    <tripinfo id="43" depart="178.00" departLane="top1B3_0" departPos="5.10" departSpeed="0.00" departDelay="0.00" arrival="254.00" arrivalLane="A3left3_0" arrivalPos="286.40" arrivalSpeed="13.50" duration="76.00" routeLength="879.60" waitingTime="1.00" waitingCount="1" stopTime="0.00" timeLoss="12.43" rerouteNo="0" devices="tripinfo_43" vType="DEFAULT_VEHTYPE" speedFactor="1.01" vaporized=""/>
    <tripinfo id="17" depart="83.00" departLane="bottom0A0_0" departPos="5.10" departSpeed="0.00" departDelay="0.00" arrival="264.00" arrivalLane="C0bottom2_0" arrivalPos="286.40" arrivalSpeed="11.08" duration="181.00" routeLength="1161.43" waitingTime="62.00" waitingCount="2" stopTime="0.00" timeLoss="81.57" rerouteNo="0" devices="tripinfo_17" vType="DEFAULT_VEHTYPE" speedFactor="0.86" vaporized=""/>
    <tripinfo id="21" depart="96.00" departLane="bottom0A0_0" departPos="5.10" departSpeed="0.00" departDelay="0.00" arrival="276.00" arrivalLane="D1right1_0" arrivalPos="286.40" arrivalSpeed="14.77" duration="180.00" routeLength="1780.11" waitingTime="43.00" waitingCount="3" stopTime="0.00" timeLoss="66.38" rerouteNo="0" devices="tripinfo_21" vType="DEFAULT_VEHTYPE" speedFactor="1.13" vaporized=""/>
    <tripinfo id="32" depart="130.00" departLane="right1D1_0" departPos="5.10" departSpeed="0.00" departDelay="0.00" arrival="277.00" arrivalLane="D3right3_0" arrivalPos="286.40" arrivalSpeed="12.03" duration="147.00" routeLength="1161.43" waitingTime="33.00" waitingCount="2" stopTime="0.00" timeLoss="52.67" rerouteNo="0" devices="tripinfo_32" vType="DEFAULT_VEHTYPE" speedFactor="0.90" vaporized=""/>
    <tripinfo id="49" depart="199.00" departLane="bottom1B0_0" departPos="5.10" departSpeed="0.00" departDelay="0.00" arrival="277.00" arrivalLane="C0bottom2_0" arrivalPos="286.40" arrivalSpeed="13.36" duration="78.00" routeLength="858.56" waitingTime="1.00" waitingCount="1" stopTime="0.00" timeLoss="15.28" rerouteNo="0" devices="tripinfo_49" vType="DEFAULT_VEHTYPE" speedFactor="1.01" vaporized=""/>
    <tripinfo id="52" depart="209.00" departLane="left2A2_0" departPos="5.10" departSpeed="0.00" departDelay="0.00" arrival="282.00" arrivalLane="A1left1_0" arrivalPos="286.40" arrivalSpeed="14.66" duration="73.00" routeLength="858.56" waitingTime="1.00" waitingCount="1" stopTime="0.00" timeLoss="17.17" rerouteNo="0" devices="tripinfo_52" vType="DEFAULT_VEHTYPE" speedFactor="1.15" vaporized=""/>
    <tripinfo id="31" depart="125.00" departLane="top0A3_0" departPos="5.10" departSpeed="0.00" departDelay="0.00" arrival="285.00" arrivalLane="A0left0_0" arrivalPos="286.40" arrivalSpeed="10.97" duration="160.00" routeLength="1477.24" waitingTime="13.00" waitingCount="2" stopTime="0.00" timeLoss="33.21" rerouteNo="0" devices="tripinfo_31" vType="DEFAULT_VEHTYPE" speedFactor="0.85" vaporized=""/>
    <tripinfo id="29" depart="105.00" departLane="top0A3_0" departPos="5.10" departSpeed="0.00" departDelay="0.00" arrival="289.00" arrivalLane="A3top0_0" arrivalPos="286.40" arrivalSpeed="12.94" duration="184.00" routeLength="1745.91" waitingTime="25.00" waitingCount="4" stopTime="0.00" timeLoss="54.21" rerouteNo="0" devices="tripinfo_29" vType="DEFAULT_VEHTYPE" speedFactor="0.99" vaporized=""/>
    <tripinfo id="34" depart="147.00" departLane="top1B3_0" departPos="5.10" departSpeed="0.00" departDelay="0.00" arrival="290.00" arrivalLane="D3top3_0" arrivalPos="286.40" arrivalSpeed="12.68" duration="143.00" routeLength="1197.66" waitingTime="35.00" waitingCount="3" stopTime="0.00" timeLoss="55.22" rerouteNo="0" devices="tripinfo_34" vType="DEFAULT_VEHTYPE" speedFactor="1.00" vaporized=""/>
    <tripinfo id="3" depart="11.00" departLane="bottom1B0_0" departPos="5.10" departSpeed="0.00" departDelay="0.00" arrival="291.00" arrivalLane="D3top3_1" arrivalPos="286.40" arrivalSpeed="14.30" duration="280.00" routeLength="2082.76" waitingTime="102.00" waitingCount="4" stopTime="0.00" timeLoss="135.55" rerouteNo="0" devices="tripinfo_3" vType="DEFAULT_VEHTYPE" speedFactor="1.05" vaporized=""/>
    <tripinfo id="0" depart="3.00" departLane="bottom3D0_0" departPos="5.10" departSpeed="0.00" departDelay="0.00" arrival="295.00" arrivalLane="A0left0_0" arrivalPos="286.40" arrivalSpeed="10.23" duration="292.00" routeLength="1495.35" waitingTime="129.00" waitingCount="4" stopTime="0.00" timeLoss="159.68" rerouteNo="0" devices="tripinfo_0" vType="DEFAULT_VEHTYPE" speedFactor="0.82" vaporized=""/>
    <tripinfo id="40" depart="170.00" departLane="right1D1_0" departPos="5.10" departSpeed="0.00" departDelay="0.00" arrival="311.00" arrivalLane="D0bottom3_0" arrivalPos="286.40" arrivalSpeed="12.68" duration="141.00" routeLength="895.01" waitingTime="51.00" waitingCount="2" stopTime="0.00" timeLoss="70.42" rerouteNo="0" devices="tripinfo_40" vType="DEFAULT_VEHTYPE" speedFactor="0.93" vaporized=""/>
    <tripinfo id="15" depart="73.00" departLane="top3D3_0" departPos="5.10" departSpeed="0.00" departDelay="1.00" arrival="316.00" arrivalLane="D3top3_0" arrivalPos="286.40" arrivalSpeed="13.53" duration="243.00" routeLength="1748.75" waitingTime="85.00" waitingCount="4" stopTime="0.00" timeLoss="114.89" rerouteNo="0" devices="tripinfo_15" vType="DEFAULT_VEHTYPE" speedFactor="1.00" vaporized=""/>
    <tripinfo id="25" depart="101.00" departLane="bottom2C0_0" departPos="5.10" departSpeed="0.00" departDelay="0.00" arrival="319.00" arrivalLane="A0left0_0" arrivalPos="286.40" arrivalSpeed="13.58" duration="218.00" routeLength="1195.18" waitingTime="111.00" waitingCount="3" stopTime="0.00" timeLoss="132.92" rerouteNo="0" devices="tripinfo_25" vType="DEFAULT_VEHTYPE" speedFactor="1.02" vaporized=""/>
    <tripinfo id="20" depart="95.00" departLane="left1A1_0" departPos="5.10" departSpeed="0.00" departDelay="0.00" arrival="320.00" arrivalLane="A2left2_0" arrivalPos="286.40" arrivalSpeed="13.38" duration="225.00" routeLength="894.86" waitingTime="142.00" waitingCount="2" stopTime="0.00" timeLoss="159.03" rerouteNo="0" devices="tripinfo_20" vType="DEFAULT_VEHTYPE" speedFactor="1.00" vaporized=""/>
    <tripinfo id="33" depart="139.00" departLane="bottom0A0_0" departPos="5.10" departSpeed="0.00" departDelay="0.00" arrival="321.00" arrivalLane="A0bottom0_0" arrivalPos="286.40" arrivalSpeed="12.62" duration="182.00" routeLength="1748.75" waitingTime="19.00" waitingCount="2" stopTime="0.00" timeLoss="46.12" rerouteNo="0" devices="tripinfo_33" vType="DEFAULT_VEHTYPE" speedFactor="0.95" vaporized=""/>
    <tripinfo id="27" depart="104.00" departLane="bottom2C0_0" departPos="5.10" departSpeed="0.00" departDelay="0.00" arrival="322.00" arrivalLane="A0bottom0_0" arrivalPos="286.40" arrivalSpeed="12.99" duration="218.00" routeLength="1197.66" waitingTime="102.00" waitingCount="3" stopTime="0.00" timeLoss="129.37" rerouteNo="0" devices="tripinfo_27" vType="DEFAULT_VEHTYPE" speedFactor="0.98" vaporized=""/>
    <tripinfo id="28" depart="107.00" departLane="bottom2C0_0" departPos="5.10" departSpeed="0.00" departDelay="3.00" arrival="324.00" arrivalLane="A0bottom0_1" arrivalPos="286.40" arrivalSpeed="13.44" duration="217.00" routeLength="1197.66" waitingTime="98.00" waitingCount="3" stopTime="0.00" timeLoss="130.88" rerouteNo="0" devices="tripinfo_28" vType="DEFAULT_VEHTYPE" speedFactor="1.02" vaporized=""/>
    <tripinfo id="35" depart="149.00" departLane="right0D0_0" departPos="5.10" departSpeed="0.00" departDelay="0.00" arrival="328.00" arrivalLane="B0bottom1_0" arrivalPos="286.40" arrivalSpeed="13.58" duration="179.00" routeLength="1197.89" waitingTime="70.00" waitingCount="2" stopTime="0.00" timeLoss="94.82" rerouteNo="0" devices="tripinfo_35" vType="DEFAULT_VEHTYPE" speedFactor="1.03" vaporized=""/>
    <tripinfo id="50" depart="205.00" departLane="left2A2_0" departPos="5.10" departSpeed="0.00" departDelay="0.00" arrival="333.00" arrivalLane="A0left0_0" arrivalPos="286.40" arrivalSpeed="14.64" duration="128.00" routeLength="1161.43" waitingTime="28.00" waitingCount="3" stopTime="0.00" timeLoss="51.09" rerouteNo="0" devices="tripinfo_50" vType="DEFAULT_VEHTYPE" speedFactor="1.11" vaporized=""/>
    <tripinfo id="23" depart="97.00" departLane="right1D1_0" departPos="5.10" departSpeed="0.00" departDelay="0.00" arrival="336.00" arrivalLane="A0bottom0_0" arrivalPos="286.40" arrivalSpeed="15.46" duration="239.00" routeLength="1795.52" waitingTime="100.00" waitingCount="3" stopTime="0.00" timeLoss="128.78" rerouteNo="0" devices="tripinfo_23" vType="DEFAULT_VEHTYPE" speedFactor="1.18" vaporized=""/>
    <tripinfo id="5" depart="14.00" departLane="left0A0_0" departPos="5.10" departSpeed="0.00" departDelay="0.00" arrival="339.00" arrivalLane="D3right3_0" arrivalPos="286.40" arrivalSpeed="12.92" duration="325.00" routeLength="2380.22" waitingTime="122.00" waitingCount="3" stopTime="0.00" timeLoss="155.45" rerouteNo="0" devices="tripinfo_5" vType="DEFAULT_VEHTYPE" speedFactor="1.02" vaporized=""/>
    <tripinfo id="48" depart="193.00" departLane="bottom0A0_0" departPos="5.10" departSpeed="0.00" departDelay="0.00" arrival="350.00" arrivalLane="A3top0_0" arrivalPos="286.40" arrivalSpeed="12.53" duration="157.00" routeLength="1495.58" waitingTime="12.00" waitingCount="1" stopTime="0.00" timeLoss="44.57" rerouteNo="0" devices="tripinfo_48" vType="DEFAULT_VEHTYPE" speedFactor="0.96" vaporized=""/>
    <tripinfo id="9" depart="23.00" departLane="right0D0_0" departPos="5.10" departSpeed="0.00" departDelay="0.00" arrival="351.00" arrivalLane="A3left3_0" arrivalPos="286.40" arrivalSpeed="12.99" duration="328.00" routeLength="2382.93" waitingTime="103.00" waitingCount="5" stopTime="0.00" timeLoss="147.78" rerouteNo="0" devices="tripinfo_9" vType="DEFAULT_VEHTYPE" speedFactor="0.96" vaporized=""/>
    <tripinfo id="24" depart="98.00" departLane="left1A1_0" departPos="5.10" departSpeed="0.00" departDelay="0.00" arrival="352.00" arrivalLane="A3top0_0" arrivalPos="286.40" arrivalSpeed="12.36" duration="254.00" routeLength="1195.18" waitingTime="143.00" waitingCount="2" stopTime="0.00" timeLoss="163.98" rerouteNo="0" devices="tripinfo_24" vType="DEFAULT_VEHTYPE" speedFactor="0.96" vaporized=""/>
    <tripinfo id="26" depart="101.00" departLane="right0D0_0" departPos="5.10" departSpeed="0.00" departDelay="0.00" arrival="353.00" arrivalLane="A3left3_1" arrivalPos="286.40" arrivalSpeed="13.29" duration="252.00" routeLength="2382.93" waitingTime="24.00" waitingCount="6" stopTime="0.00" timeLoss="77.32" rerouteNo="0" devices="tripinfo_26" vType="DEFAULT_VEHTYPE" speedFactor="0.99" vaporized=""/>
    <tripinfo id="39" depart="167.00" departLane="left3A3_0" departPos="5.10" departSpeed="0.00" departDelay="0.00" arrival="363.00" arrivalLane="C3top2_1" arrivalPos="286.40" arrivalSpeed="12.57" duration="196.00" routeLength="1197.89" waitingTime="86.00" waitingCount="2" stopTime="0.00" timeLoss="104.95" rerouteNo="0" devices="tripinfo_39" vType="DEFAULT_VEHTYPE" speedFactor="0.95" vaporized=""/>
    <tripinfo id="10" depart="31.00" departLane="bottom0A0_0" departPos="5.10" departSpeed="0.00" departDelay="0.00" arrival="365.00" arrivalLane="C3top2_0" arrivalPos="286.40" arrivalSpeed="11.07" duration="334.00" routeLength="2082.76" waitingTime="113.00" waitingCount="5" stopTime="0.00" timeLoss="147.82" rerouteNo="0" devices="tripinfo_10" vType="DEFAULT_VEHTYPE" speedFactor="0.81" vaporized=""/>
    <tripinfo id="63" depart="245.00" departLane="right0D0_0" departPos="5.10" departSpeed="0.00" departDelay="0.00" arrival="368.00" arrivalLane="D2right2_0" arrivalPos="286.40" arrivalSpeed="13.26" duration="123.00" routeLength="1161.43" waitingTime="18.00" waitingCount="2" stopTime="0.00" timeLoss="38.16" rerouteNo="0" devices="tripinfo_63" vType="DEFAULT_VEHTYPE" speedFactor="1.00" vaporized=""/>
    <tripinfo id="13" depart="52.00" departLane="right2D2_0" departPos="5.10" departSpeed="0.00" departDelay="0.00" arrival="379.00" arrivalLane="A1left1_0" arrivalPos="286.40" arrivalSpeed="13.77" duration="327.00" routeLength="1782.59" waitingTime="175.00" waitingCount="3" stopTime="0.00" timeLoss="200.39" rerouteNo="0" devices="tripinfo_13" vType="DEFAULT_VEHTYPE" speedFactor="1.03" vaporized=""/>
    <tripinfo id="73" depart="309.00" departLane="right2D2_0" departPos="5.10" departSpeed="0.00" departDelay="0.00" arrival="382.00" arrivalLane="D3right3_0" arrivalPos="286.40" arrivalSpeed="13.78" duration="73.00" routeLength="858.56" waitingTime="1.00" waitingCount="1" stopTime="0.00" timeLoss="14.28" rerouteNo="0" devices="tripinfo_73" vType="DEFAULT_VEHTYPE" speedFactor="1.08" vaporized=""/>
    <tripinfo id="80" depart="327.00" departLane="right0D0_0" departPos="5.10" departSpeed="0.00" departDelay="0.00" arrival="389.00" arrivalLane="D0bottom3_0" arrivalPos="286.40" arrivalSpeed="13.94" duration="62.00" routeLength="597.55" waitingTime="8.00" waitingCount="1" stopTime="0.00" timeLoss="18.13" rerouteNo="0" devices="tripinfo_80" vType="DEFAULT_VEHTYPE" speedFactor="1.01" vaporized=""/>
    <tripinfo id="41" depart="173.00" departLane="bottom0A0_0" departPos="5.10" departSpeed="0.00" departDelay="0.00" arrival="399.00" arrivalLane="A0bottom0_0" arrivalPos="286.40" arrivalSpeed="13.45" duration="226.00" routeLength="1748.75" waitingTime="70.00" waitingCount="2" stopTime="0.00" timeLoss="97.12" rerouteNo="0" devices="tripinfo_41" vType="DEFAULT_VEHTYPE" speedFactor="1.00" vaporized=""/>
    <tripinfo id="44" depart="184.00" departLane="top3D3_0" departPos="5.10" departSpeed="0.00" departDelay="0.00" arrival="403.00" arrivalLane="D0right0_0" arrivalPos="286.40" arrivalSpeed="11.03" duration="219.00" routeLength="1498.06" waitingTime="66.00" waitingCount="3" stopTime="0.00" timeLoss="93.09" rerouteNo="0" devices="tripinfo_44" vType="DEFAULT_VEHTYPE" speedFactor="0.86" vaporized=""/>
    <tripinfo id="19" depart="92.00" departLane="bottom3D0_0" departPos="5.10" departSpeed="0.00" departDelay="0.00" arrival="406.00" arrivalLane="A0bottom0_0" arrivalPos="286.40" arrivalSpeed="10.69" duration="314.00" routeLength="1497.83" waitingTime="159.00" waitingCount="3" stopTime="0.00" timeLoss="182.10" rerouteNo="0" devices="tripinfo_19" vType="DEFAULT_VEHTYPE" speedFactor="0.83" vaporized=""/>
    <tripinfo id="45" depart="185.00" departLane="top2C3_0" departPos="5.10" departSpeed="0.00" departDelay="0.00" arrival="408.00" arrivalLane="D0right0_0" arrivalPos="286.40" arrivalSpeed="13.58" duration="223.00" routeLength="1795.52" waitingTime="61.00" waitingCount="5" stopTime="0.00" timeLoss="97.79" rerouteNo="0" devices="tripinfo_45" vType="DEFAULT_VEHTYPE" speedFactor="1.04" vaporized=""/>
    <tripinfo id="54" depart="217.00" departLane="top2C3_0" departPos="5.10" departSpeed="0.00" departDelay="0.00" arrival="410.00" arrivalLane="D0right0_0" arrivalPos="286.40" arrivalSpeed="14.60" duration="193.00" routeLength="1795.52" waitingTime="34.00" waitingCount="3" stopTime="0.00" timeLoss="69.12" rerouteNo="0" devices="tripinfo_54" vType="DEFAULT_VEHTYPE" speedFactor="1.05" vaporized=""/>
    <tripinfo id="65" depart="266.00" departLane="left2A2_0" departPos="5.10" departSpeed="0.00" departDelay="0.00" arrival="419.00" arrivalLane="A3top0_0" arrivalPos="286.40" arrivalSpeed="13.91" duration="153.00" routeLength="895.01" waitingTime="73.00" waitingCount="2" stopTime="0.00" timeLoss="88.97" rerouteNo="0" devices="tripinfo_65" vType="DEFAULT_VEHTYPE" speedFactor="1.03" vaporized=""/>
    <tripinfo id="85" depart="344.00" departLane="right2D2_0" departPos="5.10" departSpeed="0.00" departDelay="0.00" arrival="419.00" arrivalLane="D3right3_0" arrivalPos="286.40" arrivalSpeed="16.17" duration="75.00" routeLength="858.56" waitingTime="2.00" waitingCount="2" stopTime="0.00" timeLoss="22.44" rerouteNo="0" devices="tripinfo_85" vType="DEFAULT_VEHTYPE" speedFactor="1.20" vaporized=""/>
    <tripinfo id="77" depart="318.00" departLane="top1B3_0" departPos="5.10" departSpeed="0.00" departDelay="0.00" arrival="429.00" arrivalLane="A3left3_0" arrivalPos="286.40" arrivalSpeed="13.64" duration="111.00" routeLength="879.60" waitingTime="35.00" waitingCount="1" stopTime="0.00" timeLoss="47.43" rerouteNo="0" devices="tripinfo_77" vType="DEFAULT_VEHTYPE" speedFactor="1.01" vaporized=""/>
    <tripinfo id="56" depart="221.00" departLane="right3D3_0" departPos="5.10" departSpeed="0.00" departDelay="0.00" arrival="432.00" arrivalLane="A3left3_0" arrivalPos="286.40" arrivalSpeed="13.01" duration="211.00" routeLength="1495.58" waitingTime="85.00" waitingCount="2" stopTime="0.00" timeLoss="102.90" rerouteNo="0" devices="tripinfo_56" vType="DEFAULT_VEHTYPE" speedFactor="1.00" vaporized=""/>
    <tripinfo id="103" depart="388.00" departLane="bottom3D0_0" departPos="5.10" departSpeed="0.00" departDelay="0.00" arrival="441.00" arrivalLane="D0right0_0" arrivalPos="286.40" arrivalSpeed="13.99" duration="53.00" routeLength="576.73" waitingTime="1.00" waitingCount="1" stopTime="0.00" timeLoss="10.57" rerouteNo="0" devices="tripinfo_103" vType="DEFAULT_VEHTYPE" speedFactor="1.01" vaporized=""/>
    <tripinfo id="106" depart="403.00" departLane="left0A0_0" departPos="5.10" departSpeed="0.00" departDelay="0.00" arrival="453.00" arrivalLane="A0bottom0_0" arrivalPos="286.40" arrivalSpeed="14.39" duration="50.00" routeLength="576.73" waitingTime="1.00" waitingCount="1" stopTime="0.00" timeLoss="10.39" rerouteNo="0" devices="tripinfo_106" vType="DEFAULT_VEHTYPE" speedFactor="1.07" vaporized=""/>
    <tripinfo id="59" depart="238.00" departLane="bottom3D0_0" departPos="5.10" departSpeed="0.00" departDelay="0.00" arrival="459.00" arrivalLane="B0bottom1_0" arrivalPos="286.40" arrivalSpeed="13.42" duration="221.00" routeLength="1197.66" waitingTime="111.00" waitingCount="3" stopTime="0.00" timeLoss="136.27" rerouteNo="0" devices="tripinfo_59" vType="DEFAULT_VEHTYPE" speedFactor="1.04" vaporized=""/>
    <tripinfo id="57" depart="230.00" departLane="left2A2_0" departPos="5.10" departSpeed="0.00" departDelay="0.00" arrival="461.00" arrivalLane="C3top2_0" arrivalPos="286.40" arrivalSpeed="12.16" duration="231.00" routeLength="1495.35" waitingTime="88.00" waitingCount="3" stopTime="0.00" timeLoss="114.47" rerouteNo="0" devices="tripinfo_57" vType="DEFAULT_VEHTYPE" speedFactor="0.93" vaporized=""/>
    <tripinfo id="96" depart="376.00" departLane="right0D0_0" departPos="5.10" departSpeed="0.00" departDelay="0.00" arrival="464.00" arrivalLane="D1right1_0" arrivalPos="286.40" arrivalSpeed="13.06" duration="88.00" routeLength="858.56" waitingTime="6.00" waitingCount="2" stopTime="0.00" timeLoss="24.53" rerouteNo="0" devices="tripinfo_96" vType="DEFAULT_VEHTYPE" speedFactor="1.00" vaporized=""/>
    <tripinfo id="30" depart="124.00" departLane="bottom2C0_0" departPos="5.10" departSpeed="0.00" departDelay="0.00" arrival="469.00" arrivalLane="A0left0_0" arrivalPos="286.40" arrivalSpeed="13.68" duration="345.00" routeLength="1195.18" waitingTime="229.00" waitingCount="4" stopTime="0.00" timeLoss="258.78" rerouteNo="0" devices="tripinfo_30" vType="DEFAULT_VEHTYPE" speedFactor="1.01" vaporized=""/>
    <tripinfo id="60" depart="241.00" departLane="bottom3D0_0" departPos="5.10" departSpeed="0.00" departDelay="1.00" arrival="470.00" arrivalLane="A0left0_1" arrivalPos="286.40" arrivalSpeed="13.61" duration="229.00" routeLength="1495.35" waitingTime="91.00" waitingCount="3" stopTime="0.00" timeLoss="126.68" rerouteNo="0" devices="tripinfo_60" vType="DEFAULT_VEHTYPE" speedFactor="1.06" vaporized=""/>
    <tripinfo id="37" depart="155.00" departLane="right3D3_0" departPos="5.10" departSpeed="0.00" departDelay="0.00" arrival="473.00" arrivalLane="D0bottom3_0" arrivalPos="286.40" arrivalSpeed="11.86" duration="318.00" routeLength="1495.35" waitingTime="164.00" waitingCount="4" stopTime="0.00" timeLoss="192.86" rerouteNo="0" devices="tripinfo_37" vType="DEFAULT_VEHTYPE" speedFactor="0.87" vaporized=""/>
    <tripinfo id="72" depart="304.00" departLane="bottom3D0_0" departPos="5.10" departSpeed="0.00" departDelay="0.00" arrival="473.00" arrivalLane="D0bottom3_1" arrivalPos="286.40" arrivalSpeed="13.65" duration="169.00" routeLength="1745.91" waitingTime="18.00" waitingCount="3" stopTime="0.00" timeLoss="46.88" rerouteNo="0" devices="tripinfo_72" vType="DEFAULT_VEHTYPE" speedFactor="1.04" vaporized=""/>
    <tripinfo id="58" depart="235.00" departLane="bottom3D0_0" departPos="5.10" departSpeed="0.00" departDelay="0.00" arrival="477.00" arrivalLane="B3top1_0" arrivalPos="286.40" arrivalSpeed="13.49" duration="242.00" routeLength="2080.05" waitingTime="62.00" waitingCount="3" stopTime="0.00" timeLoss="91.42" rerouteNo="0" devices="tripinfo_58" vType="DEFAULT_VEHTYPE" speedFactor="1.00" vaporized=""/>
    <tripinfo id="55" depart="218.00" departLane="bottom1B0_0" departPos="5.10" departSpeed="0.00" departDelay="0.00" arrival="482.00" arrivalLane="D1right1_0" arrivalPos="286.40" arrivalSpeed="12.12" duration="264.00" routeLength="1479.94" waitingTime="120.00" waitingCount="2" stopTime="0.00" timeLoss="141.89" rerouteNo="0" devices="tripinfo_55" vType="DEFAULT_VEHTYPE" speedFactor="0.88" vaporized=""/>
    <tripinfo id="71" depart="304.00" departLane="bottom1B0_0" departPos="5.10" departSpeed="0.00" departDelay="0.00" arrival="502.00" arrivalLane="D3top3_1" arrivalPos="286.40" arrivalSpeed="14.79" duration="198.00" routeLength="2082.76" waitingTime="17.00" waitingCount="4" stopTime="0.00" timeLoss="61.96" rerouteNo="0" devices="tripinfo_71" vType="DEFAULT_VEHTYPE" speedFactor="1.11" vaporized=""/>
    <tripinfo id="68" depart="277.00" departLane="bottom1B0_0" departPos="5.10" departSpeed="0.00" departDelay="0.00" arrival="503.00" arrivalLane="D3top3_0" arrivalPos="286.40" arrivalSpeed="13.49" duration="226.00" routeLength="2082.76" waitingTime="39.00" waitingCount="4" stopTime="0.00" timeLoss="71.38" rerouteNo="0" devices="tripinfo_68" vType="DEFAULT_VEHTYPE" speedFactor="0.98" vaporized=""/>
    <tripinfo id="42" depart="176.00" departLane="right3D3_0" departPos="5.10" departSpeed="0.00" departDelay="0.00" arrival="510.00" arrivalLane="D0right0_0" arrivalPos="286.40" arrivalSpeed="13.40" duration="334.00" routeLength="1497.83" waitingTime="184.00" waitingCount="5" stopTime="0.00" timeLoss="222.61" rerouteNo="0" devices="tripinfo_42" vType="DEFAULT_VEHTYPE" speedFactor="0.98" vaporized=""/>
    <tripinfo id="64" depart="253.00" departLane="right0D0_0" departPos="5.10" departSpeed="0.00" departDelay="0.00" arrival="528.00" arrivalLane="A3left3_0" arrivalPos="286.40" arrivalSpeed="14.68" duration="275.00" routeLength="2382.93" waitingTime="68.00" waitingCount="6" stopTime="0.00" timeLoss="114.47" rerouteNo="0" devices="tripinfo_64" vType="DEFAULT_VEHTYPE" speedFactor="1.08" vaporized=""/>