<?xml version="1.0" encoding="UTF-8"?>

<!-- generated on 12/10/21 13:48:57 by Eclipse SUMO sumo Version 1.7.0
<configuration xmlns:xsi="http://www.w3.org/2001/XMLSchema-instance" xsi:noNamespaceSchemaLocation="http://sumo.dlr.de/xsd/sumoConfiguration.xsd">

    <input>
        <net-file value="C:\Users\longs\Desktop\RESCO-main\environments\grid4x4\grid4x4.net.xml"/>
        <route-files value="C:\Users\longs\Desktop\RESCO-main\environments\grid4x4\grid4x4_5.rou.xml"/>
    </input>

    <output>
        <tripinfo-output value="C:\Users\longs\Desktop\RESCO-main\logs\STOCHASTIC-tr1-grid4x4-0-mplight-wait\tripinfo_5.xml"/>
        <tripinfo-output.write-unfinished value="true"/>
    </output>

    <processing>
        <time-to-teleport value="-1"/>
    </processing>

    <report>
        <no-warnings value="true"/>
        <no-step-log value="true"/>
    </report>

    <traci_server>
        <remote-port value="58844"/>
    </traci_server>

    <random_number>
        <random value="true"/>
    </random_number>

</configuration>
-->

<tripinfos xmlns:xsi="http://www.w3.org/2001/XMLSchema-instance" xsi:noNamespaceSchemaLocation="http://sumo.dlr.de/xsd/tripinfo_file.xsd">
    <tripinfo id="6" depart="37.00" departLane="left0A0_0" departPos="5.10" departSpeed="0.00" departDelay="0.00" arrival="86.00" arrivalLane="A0bottom0_0" arrivalPos="286.40" arrivalSpeed="13.84" duration="49.00" routeLength="576.73" waitingTime="0.00" waitingCount="0" stopTime="0.00" timeLoss="8.29" rerouteNo="0" devices="tripinfo_6" vType="DEFAULT_VEHTYPE" speedFactor="1.05" vaporized=""/>
    <tripinfo id="2" depart="26.00" departLane="right2D2_0" departPos="5.10" departSpeed="0.00" departDelay="0.00" arrival="109.00" arrivalLane="D1right1_0" arrivalPos="286.40" arrivalSpeed="13.14" duration="83.00" routeLength="894.86" waitingTime="4.00" waitingCount="1" stopTime="0.00" timeLoss="17.89" rerouteNo="0" devices="tripinfo_2" vType="DEFAULT_VEHTYPE" speedFactor="1.01" vaporized=""/>
    <tripinfo id="3" depart="29.00" departLane="right2D2_0" departPos="5.10" departSpeed="0.00" departDelay="2.00" arrival="112.00" arrivalLane="D1right1_0" arrivalPos="286.40" arrivalSpeed="13.45" duration="83.00" routeLength="894.86" waitingTime="1.00" waitingCount="1" stopTime="0.00" timeLoss="14.82" rerouteNo="0" devices="tripinfo_3" vType="DEFAULT_VEHTYPE" speedFactor="0.97" vaporized=""/>
    <tripinfo id="1" depart="24.00" departLane="bottom0A0_0" departPos="5.10" departSpeed="0.00" departDelay="0.00" arrival="120.00" arrivalLane="C0bottom2_0" arrivalPos="286.40" arrivalSpeed="14.57" duration="96.00" routeLength="1161.43" waitingTime="2.00" waitingCount="2" stopTime="0.00" timeLoss="17.97" rerouteNo="0" devices="tripinfo_1" vType="DEFAULT_VEHTYPE" speedFactor="1.09" vaporized=""/>
    <tripinfo id="7" depart="38.00" departLane="right0D0_0" departPos="5.10" departSpeed="0.00" departDelay="0.00" arrival="132.00" arrivalLane="C0bottom2_0" arrivalPos="286.40" arrivalSpeed="12.90" duration="94.00" routeLength="897.72" waitingTime="17.00" waitingCount="1" stopTime="0.00" timeLoss="28.69" rerouteNo="0" devices="tripinfo_7" vType="DEFAULT_VEHTYPE" speedFactor="1.00" vaporized=""/>
    <tripinfo id="13" depart="73.00" departLane="top3D3_0" departPos="5.10" departSpeed="0.00" departDelay="0.00" arrival="150.00" arrivalLane="C3top2_0" arrivalPos="286.40" arrivalSpeed="13.09" duration="77.00" routeLength="858.56" waitingTime="1.00" waitingCount="1" stopTime="0.00" timeLoss="13.31" rerouteNo="0" devices="tripinfo_13" vType="DEFAULT_VEHTYPE" speedFactor="1.00" vaporized=""/>
    <tripinfo id="9" depart="48.00" departLane="right1D1_0" departPos="5.10" departSpeed="0.00" departDelay="0.00" arrival="180.00" arrivalLane="D3top3_0" arrivalPos="286.40" arrivalSpeed="13.36" duration="132.00" routeLength="1179.77" waitingTime="24.00" waitingCount="2" stopTime="0.00" timeLoss="43.83" rerouteNo="0" devices="tripinfo_9" vType="DEFAULT_VEHTYPE" speedFactor="0.98" vaporized=""/>
    <tripinfo id="10" depart="58.00" departLane="right3D3_0" departPos="5.10" departSpeed="0.00" departDelay="0.00" arrival="198.00" arrivalLane="D2right2_0" arrivalPos="286.40" arrivalSpeed="14.40" duration="140.00" routeLength="894.86" waitingTime="62.00" waitingCount="2" stopTime="0.00" timeLoss="77.11" rerouteNo="0" devices="tripinfo_10" vType="DEFAULT_VEHTYPE" speedFactor="1.04" vaporized=""/>
    <tripinfo id="8" depart="42.00" departLane="right1D1_0" departPos="5.10" departSpeed="0.00" departDelay="0.00" arrival="206.00" arrivalLane="D0bottom3_0" arrivalPos="286.40" arrivalSpeed="15.70" duration="164.00" routeLength="895.01" waitingTime="95.00" waitingCount="1" stopTime="0.00" timeLoss="107.91" rerouteNo="0" devices="tripinfo_8" vType="DEFAULT_VEHTYPE" speedFactor="1.16" vaporized=""/>
    <tripinfo id="23" depart="123.00" departLane="left1A1_0" departPos="5.10" departSpeed="0.00" departDelay="0.00" arrival="207.00" arrivalLane="A0left0_0" arrivalPos="286.40" arrivalSpeed="12.92" duration="84.00" routeLength="858.56" waitingTime="2.00" waitingCount="2" stopTime="0.00" timeLoss="16.16" rerouteNo="0" devices="tripinfo_23" vType="DEFAULT_VEHTYPE" speedFactor="0.93" vaporized=""/>
    <tripinfo id="26" depart="137.00" departLane="top3D3_0" departPos="5.10" departSpeed="0.00" departDelay="0.00" arrival="220.00" arrivalLane="D3right3_0" arrivalPos="286.40" arrivalSpeed="12.53" duration="83.00" routeLength="597.55" waitingTime="28.00" waitingCount="1" stopTime="0.00" timeLoss="36.69" rerouteNo="0" devices="tripinfo_26" vType="DEFAULT_VEHTYPE" speedFactor="0.94" vaporized=""/>
    <tripinfo id="14" depart="74.00" departLane="bottom2C0_0" departPos="5.10" departSpeed="0.00" departDelay="0.00" arrival="238.00" arrivalLane="A0bottom0_0" arrivalPos="286.40" arrivalSpeed="13.87" duration="164.00" routeLength="1197.66" waitingTime="62.00" waitingCount="1" stopTime="0.00" timeLoss="81.61" rerouteNo="0" devices="tripinfo_14" vType="DEFAULT_VEHTYPE" speedFactor="1.06" vaporized=""/>
    <tripinfo id="22" depart="121.00" departLane="right1D1_0" departPos="5.10" departSpeed="0.00" departDelay="0.00" arrival="248.00" arrivalLane="D3top3_0" arrivalPos="286.40" arrivalSpeed="14.50" duration="127.00" routeLength="1179.77" waitingTime="25.00" waitingCount="3" stopTime="0.00" timeLoss="46.32" rerouteNo="0" devices="tripinfo_22" vType="DEFAULT_VEHTYPE" speedFactor="1.07" vaporized=""/>
    <tripinfo id="0" depart="1.00" departLane="left0A0_0" departPos="5.10" departSpeed="0.00" departDelay="0.00" arrival="260.00" arrivalLane="A3left3_0" arrivalPos="286.40" arrivalSpeed="13.78" duration="259.00" routeLength="1497.83" waitingTime="127.00" waitingCount="3" stopTime="0.00" timeLoss="148.77" rerouteNo="0" devices="tripinfo_0" vType="DEFAULT_VEHTYPE" speedFactor="0.99" vaporized=""/>
    <tripinfo id="11" depart="63.00" departLane="left3A3_0" departPos="5.10" departSpeed="0.00" departDelay="0.00" arrival="263.00" arrivalLane="A3left3_0" arrivalPos="286.40" arrivalSpeed="12.57" duration="200.00" routeLength="1748.75" waitingTime="40.00" waitingCount="4" stopTime="0.00" timeLoss="65.22" rerouteNo="0" devices="tripinfo_11" vType="DEFAULT_VEHTYPE" speedFactor="0.96" vaporized=""/>
    <tripinfo id="25" depart="132.00" departLane="top0A3_0" departPos="5.10" departSpeed="0.00" departDelay="0.00" arrival="266.00" arrivalLane="C3top2_0" arrivalPos="286.40" arrivalSpeed="15.36" duration="134.00" routeLength="1197.66" waitingTime="39.00" waitingCount="2" stopTime="0.00" timeLoss="58.61" rerouteNo="0" devices="tripinfo_25" vType="DEFAULT_VEHTYPE" speedFactor="1.16" vaporized=""/>
    <tripinfo id="30" depart="148.00" departLane="top1B3_0" departPos="5.10" departSpeed="0.00" departDelay="0.00" arrival="271.00" arrivalLane="C3top2_0" arrivalPos="286.40" arrivalSpeed="13.97" duration="123.00" routeLength="894.86" waitingTime="40.00" waitingCount="2" stopTime="0.00" timeLoss="57.84" rerouteNo="0" devices="tripinfo_30" vType="DEFAULT_VEHTYPE" speedFactor="1.01" vaporized=""/>
    <tripinfo id="47" depart="195.00" departLane="top0A3_0" departPos="5.10" departSpeed="0.00" departDelay="0.00" arrival="273.00" arrivalLane="A2left2_0" arrivalPos="286.40" arrivalSpeed="13.94" duration="78.00" routeLength="876.90" waitingTime="3.00" waitingCount="1" stopTime="0.00" timeLoss="15.25" rerouteNo="0" devices="tripinfo_47" vType="DEFAULT_VEHTYPE" speedFactor="1.03" vaporized=""/>
    <tripinfo id="48" depart="197.00" departLane="right1D1_0" departPos="5.10" departSpeed="0.00" departDelay="0.00" arrival="273.00" arrivalLane="D2right2_0" arrivalPos="286.40" arrivalSpeed="14.72" duration="76.00" routeLength="858.56" waitingTime="1.00" waitingCount="1" stopTime="0.00" timeLoss="16.73" rerouteNo="0" devices="tripinfo_48" vType="DEFAULT_VEHTYPE" speedFactor="1.07" vaporized=""/>
    <tripinfo id="45" depart="191.00" departLane="top0A3_0" departPos="5.10" departSpeed="0.00" departDelay="0.00" arrival="277.00" arrivalLane="B3top1_0" arrivalPos="286.40" arrivalSpeed="14.91" duration="86.00" routeLength="894.86" waitingTime="18.00" waitingCount="1" stopTime="0.00" timeLoss="28.17" rerouteNo="0" devices="tripinfo_45" vType="DEFAULT_VEHTYPE" speedFactor="1.13" vaporized=""/>
    <tripinfo id="20" depart="117.00" departLane="left0A0_0" departPos="5.10" departSpeed="0.00" departDelay="0.00" arrival="308.00" arrivalLane="D1right1_0" arrivalPos="286.40" arrivalSpeed="14.54" duration="191.00" routeLength="1782.59" waitingTime="40.00" waitingCount="4" stopTime="0.00" timeLoss="68.90" rerouteNo="0" devices="tripinfo_20" vType="DEFAULT_VEHTYPE" speedFactor="1.06" vaporized=""/>
    <tripinfo id="35" depart="167.00" departLane="bottom1B0_0" departPos="5.10" departSpeed="0.00" departDelay="0.00" arrival="310.00" arrivalLane="A1left1_0" arrivalPos="286.40" arrivalSpeed="12.18" duration="143.00" routeLength="1195.18" waitingTime="39.00" waitingCount="1" stopTime="0.00" timeLoss="51.17" rerouteNo="0" devices="tripinfo_35" vType="DEFAULT_VEHTYPE" speedFactor="0.94" vaporized=""/>
    <tripinfo id="19" depart="116.00" departLane="bottom2C0_0" departPos="5.10" departSpeed="0.00" departDelay="0.00" arrival="311.00" arrivalLane="D2right2_0" arrivalPos="286.40" arrivalSpeed="12.21" duration="195.00" routeLength="1479.94" waitingTime="49.00" waitingCount="3" stopTime="0.00" timeLoss="77.40" rerouteNo="0" devices="tripinfo_19" vType="DEFAULT_VEHTYPE" speedFactor="0.92" vaporized=""/>
    <tripinfo id="34" depart="162.00" departLane="left1A1_0" departPos="5.10" departSpeed="0.00" departDelay="0.00" arrival="326.00" arrivalLane="A1left1_0" arrivalPos="286.40" arrivalSpeed="16.21" duration="164.00" routeLength="1748.75" waitingTime="18.00" waitingCount="5" stopTime="0.00" timeLoss="54.73" rerouteNo="0" devices="tripinfo_34" vType="DEFAULT_VEHTYPE" speedFactor="1.17" vaporized=""/>
    <tripinfo id="24" depart="131.00" departLane="top1B3_0" departPos="5.10" departSpeed="0.00" departDelay="0.00" arrival="327.00" arrivalLane="D3top3_0" arrivalPos="286.40" arrivalSpeed="14.83" duration="196.00" routeLength="1197.66" waitingTime="96.00" waitingCount="3" stopTime="0.00" timeLoss="119.52" rerouteNo="0" devices="tripinfo_24" vType="DEFAULT_VEHTYPE" speedFactor="1.15" vaporized=""/>
    <tripinfo id="31" depart="156.00" departLane="right1D1_0" departPos="5.10" departSpeed="0.00" departDelay="0.00" arrival="343.00" arrivalLane="D1right1_0" arrivalPos="286.40" arrivalSpeed="11.56" duration="187.00" routeLength="1748.75" waitingTime="18.00" waitingCount="2" stopTime="0.00" timeLoss="39.48" rerouteNo="0" devices="tripinfo_31" vType="DEFAULT_VEHTYPE" speedFactor="0.88" vaporized=""/>
    <tripinfo id="56" depart="240.00" departLane="bottom2C0_0" departPos="5.10" departSpeed="0.00" departDelay="0.00" arrival="349.00" arrivalLane="D0right0_0" arrivalPos="286.40" arrivalSpeed="12.74" duration="109.00" routeLength="879.60" waitingTime="27.00" waitingCount="2" stopTime="0.00" timeLoss="45.09" rerouteNo="0" devices="tripinfo_56" vType="DEFAULT_VEHTYPE" speedFactor="1.00" vaporized=""/>
    <tripinfo id="17" depart="114.00" departLane="right0D0_0" departPos="5.10" departSpeed="0.00" departDelay="0.00" arrival="350.00" arrivalLane="C3top2_0" arrivalPos="286.40" arrivalSpeed="13.44" duration="236.00" routeLength="1780.11" waitingTime="81.00" waitingCount="3" stopTime="0.00" timeLoss="104.34" rerouteNo="0" devices="tripinfo_17" vType="DEFAULT_VEHTYPE" speedFactor="0.98" vaporized=""/>
    <tripinfo id="46" depart="191.00" departLane="right3D3_0" departPos="5.10" departSpeed="0.00" departDelay="0.00" arrival="357.00" arrivalLane="C3top2_0" arrivalPos="286.40" arrivalSpeed="10.31" duration="166.00" routeLength="876.90" waitingTime="72.00" waitingCount="2" stopTime="0.00" timeLoss="89.48" rerouteNo="0" devices="tripinfo_46" vType="DEFAULT_VEHTYPE" speedFactor="0.83" vaporized=""/>
    <tripinfo id="21" depart="117.00" departLane="right2D2_0" departPos="5.10" departSpeed="0.00" departDelay="0.00" arrival="360.00" arrivalLane="A0left0_0" arrivalPos="286.40" arrivalSpeed="13.30" duration="243.00" routeLength="2080.05" waitingTime="55.00" waitingCount="4" stopTime="0.00" timeLoss="86.09" rerouteNo="0" devices="tripinfo_21" vType="DEFAULT_VEHTYPE" speedFactor="0.97" vaporized=""/>
    <tripinfo id="12" depart="69.00" departLane="right2D2_0" departPos="5.10" departSpeed="0.00" departDelay="0.00" arrival="361.00" arrivalLane="B0bottom1_0" arrivalPos="286.40" arrivalSpeed="11.26" duration="292.00" routeLength="1795.52" waitingTime="121.00" waitingCount="3" stopTime="0.00" timeLoss="147.49" rerouteNo="0" devices="tripinfo_12" vType="DEFAULT_VEHTYPE" speedFactor="0.90" vaporized=""/>
    <tripinfo id="5" depart="34.00" departLane="bottom3D0_0" departPos="5.10" departSpeed="0.00" departDelay="0.00" arrival="368.00" arrivalLane="A3top0_0" arrivalPos="286.40" arrivalSpeed="13.35" duration="334.00" routeLength="2380.22" waitingTime="129.00" waitingCount="6" stopTime="0.00" timeLoss="169.79" rerouteNo="0" devices="tripinfo_5" vType="DEFAULT_VEHTYPE" speedFactor="1.05" vaporized=""/>
    <tripinfo id="44" depart="188.00" departLane="left3A3_0" departPos="5.10" departSpeed="0.00" departDelay="0.00" arrival="369.00" arrivalLane="B3top1_0" arrivalPos="286.40" arrivalSpeed="12.73" duration="181.00" routeLength="897.72" waitingTime="99.00" waitingCount="2" stopTime="0.00" timeLoss="114.95" rerouteNo="0" devices="tripinfo_44" vType="DEFAULT_VEHTYPE" speedFactor="0.98" vaporized=""/>
    <tripinfo id="53" depart="230.00" departLane="left2A2_0" departPos="5.10" departSpeed="0.00" departDelay="0.00" arrival="369.00" arrivalLane="A0bottom0_0" arrivalPos="286.40" arrivalSpeed="14.00" duration="139.00" routeLength="1179.77" waitingTime="41.00" waitingCount="2" stopTime="0.00" timeLoss="57.83" rerouteNo="0" devices="tripinfo_53" vType="DEFAULT_VEHTYPE" speedFactor="1.06" vaporized=""/>
    <tripinfo id="54" depart="234.00" departLane="left1A1_0" departPos="5.10" departSpeed="0.00" departDelay="0.00" arrival="374.00" arrivalLane="A3top0_0" arrivalPos="286.40" arrivalSpeed="12.05" duration="140.00" routeLength="1195.18" waitingTime="19.00" waitingCount="2" stopTime="0.00" timeLoss="40.85" rerouteNo="0" devices="tripinfo_54" vType="DEFAULT_VEHTYPE" speedFactor="0.87" vaporized=""/>
    <tripinfo id="32" depart="159.00" departLane="left1A1_0" departPos="5.10" departSpeed="0.00" departDelay="0.00" arrival="391.00" arrivalLane="D2right2_1" arrivalPos="286.40" arrivalSpeed="13.94" duration="232.00" routeLength="1782.59" waitingTime="69.00" waitingCount="4" stopTime="0.00" timeLoss="105.71" rerouteNo="0" devices="tripinfo_32" vType="DEFAULT_VEHTYPE" speedFactor="1.03" vaporized=""/>
    <tripinfo id="4" depart="28.00" departLane="left0A0_0" departPos="5.10" departSpeed="0.00" departDelay="0.00" arrival="392.00" arrivalLane="D2right2_0" arrivalPos="286.40" arrivalSpeed="11.56" duration="364.00" routeLength="2080.05" waitingTime="155.00" waitingCount="5" stopTime="0.00" timeLoss="194.97" rerouteNo="0" devices="tripinfo_4" vType="DEFAULT_VEHTYPE" speedFactor="0.89" vaporized=""/>
    <tripinfo id="28" depart="143.00" departLane="top2C3_0" departPos="5.10" departSpeed="0.00" departDelay="0.00" arrival="393.00" arrivalLane="B0bottom1_0" arrivalPos="286.40" arrivalSpeed="11.21" duration="250.00" routeLength="1782.72" waitingTime="64.00" waitingCount="3" stopTime="0.00" timeLoss="90.04" rerouteNo="0" devices="tripinfo_28" vType="DEFAULT_VEHTYPE" speedFactor="0.81" vaporized=""/>
    <tripinfo id="36" depart="169.00" departLane="bottom3D0_0" departPos="5.10" departSpeed="0.00" departDelay="0.00" arrival="411.00" arrivalLane="A0bottom0_0" arrivalPos="286.40" arrivalSpeed="12.12" duration="242.00" routeLength="1497.83" waitingTime="101.00" waitingCount="3" stopTime="0.00" timeLoss="124.23" rerouteNo="0" devices="tripinfo_36" vType="DEFAULT_VEHTYPE" speedFactor="0.93" vaporized=""/>
    <tripinfo id="27" depart="140.00" departLane="bottom0A0_0" departPos="5.10" departSpeed="0.00" departDelay="0.00" arrival="412.00" arrivalLane="A3top0_0" arrivalPos="286.40" arrivalSpeed="11.51" duration="272.00" routeLength="1495.58" waitingTime="120.00" waitingCount="4" stopTime="0.00" timeLoss="147.73" rerouteNo="0" devices="tripinfo_27" vType="DEFAULT_VEHTYPE" speedFactor="0.87" vaporized=""/>
    <tripinfo id="79" depart="351.00" departLane="bottom0A0_0" departPos="5.10" departSpeed="0.00" departDelay="0.00" arrival="426.00" arrivalLane="A1left1_0" arrivalPos="286.40" arrivalSpeed="15.13" duration="75.00" routeLength="897.72" waitingTime="8.00" waitingCount="1" stopTime="0.00" timeLoss="19.42" rerouteNo="0" devices="tripinfo_79" vType="DEFAULT_VEHTYPE" speedFactor="1.18" vaporized=""/>
    <tripinfo id="55" depart="239.00" departLane="left1A1_0" departPos="5.10" departSpeed="0.00" departDelay="0.00" arrival="429.00" arrivalLane="A1left1_0" arrivalPos="286.40" arrivalSpeed="13.83" duration="190.00" routeLength="1748.75" waitingTime="33.00" waitingCount="5" stopTime="0.00" timeLoss="70.98" rerouteNo="0" devices="tripinfo_55" vType="DEFAULT_VEHTYPE" speedFactor="1.07" vaporized=""/>
    <tripinfo id="89" depart="383.00" departLane="top0A3_0" departPos="5.10" departSpeed="0.00" departDelay="0.00" arrival="433.00" arrivalLane="A3left3_0" arrivalPos="286.40" arrivalSpeed="15.50" duration="50.00" routeLength="576.73" waitingTime="1.00" waitingCount="1" stopTime="0.00" timeLoss="12.86" rerouteNo="0" devices="tripinfo_89" vType="DEFAULT_VEHTYPE" speedFactor="1.14" vaporized=""/>
    <tripinfo id="38" depart="179.00" departLane="right1D1_0" departPos="5.10" departSpeed="0.00" departDelay="0.00" arrival="436.00" arrivalLane="A3top0_0" arrivalPos="286.40" arrivalSpeed="12.14" duration="257.00" routeLength="2080.28" waitingTime="61.00" waitingCount="3" stopTime="0.00" timeLoss="93.84" rerouteNo="0" devices="tripinfo_38" vType="DEFAULT_VEHTYPE" speedFactor="0.92" vaporized=""/>
    <tripinfo id="43" depart="186.00" departLane="left0A0_0" departPos="5.10" departSpeed="0.00" departDelay="0.00" arrival="438.00" arrivalLane="B3top1_1" arrivalPos="286.40" arrivalSpeed="15.19" duration="252.00" routeLength="1795.52" waitingTime="86.00" waitingCount="3" stopTime="0.00" timeLoss="139.23" rerouteNo="0" devices="tripinfo_43" vType="DEFAULT_VEHTYPE" speedFactor="1.16" vaporized=""/>
    <tripinfo id="37" depart="174.00" departLane="left1A1_0" departPos="5.10" departSpeed="0.00" departDelay="0.00" arrival="440.00" arrivalLane="B3top1_0" arrivalPos="286.40" arrivalSpeed="11.83" duration="266.00" routeLength="1495.35" waitingTime="124.00" waitingCount="3" stopTime="0.00" timeLoss="149.91" rerouteNo="0" devices="tripinfo_37" vType="DEFAULT_VEHTYPE" speedFactor="0.93" vaporized=""/>
    <tripinfo id="49" depart="201.00" departLane="right0D0_0" departPos="5.10" departSpeed="0.00" departDelay="0.00" arrival="443.00" arrivalLane="B3top1_0" arrivalPos="286.40" arrivalSpeed="13.29" duration="242.00" routeLength="2080.28" waitingTime="54.00" waitingCount="4" stopTime="0.00" timeLoss="93.15" rerouteNo="0" devices="tripinfo_49" vType="DEFAULT_VEHTYPE" speedFactor="1.01" vaporized=""/>
    <tripinfo id="66" depart="303.00" departLane="left1A1_0" departPos="5.10" departSpeed="0.00" departDelay="0.00" arrival="448.00" arrivalLane="A2left2_0" arrivalPos="286.40" arrivalSpeed="9.16" duration="145.00" routeLength="894.86" waitingTime="39.00" waitingCount="2" stopTime="0.00" timeLoss="55.01" rerouteNo="0" devices="tripinfo_66" vType="DEFAULT_VEHTYPE" speedFactor="0.73" vaporized=""/>
    <tripinfo id="93" depart="399.00" departLane="right0D0_0" departPos="5.10" departSpeed="0.00" departDelay="0.00" arrival="453.00" arrivalLane="D0bottom3_0" arrivalPos="286.40" arrivalSpeed="12.43" duration="54.00" routeLength="597.55" waitingTime="0.00" waitingCount="0" stopTime="0.00" timeLoss="4.80" rerouteNo="0" devices="tripinfo_93" vType="DEFAULT_VEHTYPE" speedFactor="0.90" vaporized=""/>
    <tripinfo id="65" depart="290.00" departLane="right2D2_0" departPos="5.10" departSpeed="0.00" departDelay="0.00" arrival="458.00" arrivalLane="D1right1_0" arrivalPos="286.40" arrivalSpeed="13.94" duration="168.00" routeLength="894.86" waitingTime="94.00" waitingCount="1" stopTime="0.00" timeLoss="106.76" rerouteNo="0" devices="tripinfo_65" vType="DEFAULT_VEHTYPE" speedFactor="1.07" vaporized=""/>
    <tripinfo id="51" depart="217.00" departLane="top1B3_0" departPos="5.10" departSpeed="0.00" departDelay="0.00" arrival="459.00" arrivalLane="A0left0_0" arrivalPos="286.40" arrivalSpeed="12.38" duration="242.00" routeLength="1780.11" waitingTime="83.00" waitingCount="4" stopTime="0.00" timeLoss="110.66" rerouteNo="0" devices="tripinfo_51" vType="DEFAULT_VEHTYPE" speedFactor="0.98" vaporized=""/>
    <tripinfo id="58" depart="242.00" departLane="right1D1_0" departPos="5.10" departSpeed="0.00" departDelay="0.00" arrival="460.00" arrivalLane="D3top3_0" arrivalPos="286.40" arrivalSpeed="12.05" duration="218.00" routeLength="1179.77" waitingTime="108.00" waitingCount="3" stopTime="0.00" timeLoss="126.63" rerouteNo="0" devices="tripinfo_58" vType="DEFAULT_VEHTYPE" speedFactor="0.94" vaporized=""/>
    <tripinfo id="40" depart="184.00" departLane="bottom1B0_0" departPos="5.10" departSpeed="0.00" departDelay="0.00" arrival="476.00" arrivalLane="A3left3_0" arrivalPos="286.40" arrivalSpeed="15.70" duration="292.00" routeLength="1795.52" waitingTime="143.00" waitingCount="4" stopTime="0.00" timeLoss="178.43" rerouteNo="0" devices="tripinfo_40" vType="DEFAULT_VEHTYPE" speedFactor="1.14" vaporized=""/>
    <tripinfo id="71" depart="322.00" departLane="top3D3_0" departPos="5.10" departSpeed="0.00" departDelay="0.00" arrival="478.00" arrivalLane="A3top0_0" arrivalPos="286.40" arrivalSpeed="13.16" duration="156.00" routeLength="1461.60" waitingTime="18.00" waitingCount="3" stopTime="0.00" timeLoss="47.25" rerouteNo="0" devices="tripinfo_71" vType="DEFAULT_VEHTYPE" speedFactor="0.98" vaporized=""/>
    <tripinfo id="50" depart="206.00" departLane="bottom1B0_0" departPos="5.10" departSpeed="0.00" departDelay="0.00" arrival="479.00" arrivalLane="A3left3_0" arrivalPos="286.40" arrivalSpeed="15.24" duration="273.00" routeLength="1795.52" waitingTime="126.00" waitingCount="3" stopTime="0.00" timeLoss="155.40" rerouteNo="0" devices="tripinfo_50" vType="DEFAULT_VEHTYPE" speedFactor="1.11" vaporized=""/>
    <tripinfo id="86" depart="364.00" departLane="bottom3D0_0" departPos="5.10" departSpeed="0.00" departDelay="0.00" arrival="485.00" arrivalLane="D1right1_0" arrivalPos="286.40" arrivalSpeed="13.60" duration="121.00" routeLength="876.90" waitingTime="43.00" waitingCount="2" stopTime="0.00" timeLoss="59.06" rerouteNo="0" devices="tripinfo_86" vType="DEFAULT_VEHTYPE" speedFactor="1.03" vaporized=""/>
    <tripinfo id="84" depart="360.00" departLane="left1A1_0" departPos="5.10" departSpeed="0.00" departDelay="0.00" arrival="490.00" arrivalLane="A3left3_0" arrivalPos="286.40" arrivalSpeed="13.15" duration="130.00" routeLength="1197.66" waitingTime="24.00" waitingCount="2" stopTime="0.00" timeLoss="42.32" rerouteNo="0" devices="tripinfo_84" vType="DEFAULT_VEHTYPE" speedFactor="1.00" vaporized=""/>
    <tripinfo id="76" depart="336.00" departLane="left2A2_0" departPos="5.10" departSpeed="0.00" departDelay="2.00" arrival="494.00" arrivalLane="A0left0_0" arrivalPos="286.40" arrivalSpeed="11.05" duration="158.00" routeLength="1161.43" waitingTime="38.00" waitingCount="3" stopTime="0.00" timeLoss="61.28" rerouteNo="0" devices="tripinfo_76" vType="DEFAULT_VEHTYPE" speedFactor="0.88" vaporized=""/>
    <tripinfo id="62" depart="269.00" departLane="left1A1_0" departPos="5.10" departSpeed="0.00" departDelay="0.00" arrival="502.00" arrivalLane="D1right1_0" arrivalPos="286.40" arrivalSpeed="12.47" duration="233.00" routeLength="1495.58" waitingTime="99.00" waitingCount="1" stopTime="0.00" timeLoss="123.73" rerouteNo="0" devices="tripinfo_62" vType="DEFAULT_VEHTYPE" speedFactor="0.99" vaporized=""/>
    <tripinfo id="77" depart="335.00" departLane="bottom0A0_0" departPos="5.10" departSpeed="0.00" departDelay="0.00" arrival="503.00" arrivalLane="C0bottom2_0" arrivalPos="286.40" arrivalSpeed="15.20" duration="168.00" routeLength="1161.43" waitingTime="65.00" waitingCount="3" stopTime="0.00" timeLoss="90.92" rerouteNo="0" devices="tripinfo_77" vType="DEFAULT_VEHTYPE" speedFactor="1.11" vaporized=""/>
    <tripinfo id="39" depart="179.00" departLane="top0A3_0" departPos="5.10" departSpeed="0.00" departDelay="0.00" arrival="511.00" arrivalLane="C0bottom2_0" arrivalPos="286.40" arrivalSpeed="12.20" duration="332.00" routeLength="2080.05" waitingTime="132.00" waitingCount="4" stopTime="0.00" timeLoss="163.90" rerouteNo="0" devices="tripinfo_39" vType="DEFAULT_VEHTYPE" speedFactor="0.90" vaporized=""/>
    <tripinfo id="52" depart="224.00" departLane="top1B3_0" departPos="5.10" departSpeed="0.00" departDelay="0.00" arrival="518.00" arrivalLane="D3right3_0" arrivalPos="286.40" arrivalSpeed="13.79" duration="294.00" routeLength="1195.18" waitingTime="191.00" waitingCount="3" stopTime="0.00" timeLoss="211.06" rerouteNo="0" devices="tripinfo_52" vType="DEFAULT_VEHTYPE" speedFactor="1.05" vaporized=""/>
    <tripinfo id="15" depart="76.00" departLane="bottom1B0_0" departPos="5.10" departSpeed="0.00" departDelay="0.00" arrival="524.00" arrivalLane="D3right3_0" arrivalPos="286.40" arrivalSpeed="12.35" duration="448.00" routeLength="2080.28" waitingTime="239.00" waitingCount="6" stopTime="0.00" timeLoss="280.04" rerouteNo="0" devices="tripinfo_15" vType="DEFAULT_VEHTYPE" speedFactor="0.90" vaporized=""/>
    <tripinfo id="59" depart="247.00" departLane="left1A1_0" departPos="5.10" departSpeed="0.00" departDelay="0.00" arrival="524.00" arrivalLane="D3right3_1" arrivalPos="286.40" arrivalSpeed="13.95" duration="277.00" routeLength="2080.05" waitingTime="90.00" waitingCount="5" stopTime="0.00" timeLoss="138.57" rerouteNo="0" devices="tripinfo_59" vType="DEFAULT_VEHTYPE" speedFactor="1.09" vaporized=""/>
    <tripinfo id="33" depart="160.00" departLane="left0A0_0" departPos="5.10" departSpeed="0.00" departDelay="0.00" arrival="527.00" arrivalLane="D3right3_0" arrivalPos="286.40" arrivalSpeed="11.34" duration="367.00" routeLength="2380.22" waitingTime="126.00" waitingCount="5" stopTime="0.00" timeLoss="167.15" rerouteNo="0" devices="tripinfo_33" vType="DEFAULT_VEHTYPE" speedFactor="0.86" vaporized=""/>
    <tripinfo id="85" depart="364.00" departLane="top0A3_0" departPos="5.10" departSpeed="0.00" departDelay="0.00" arrival="528.00" arrivalLane="A3top0_0" arrivalPos="286.40" arrivalSpeed="13.02" duration="164.00" routeLength="1745.91" waitingTime="6.00" waitingCount="4" stopTime="0.00" timeLoss="39.74" rerouteNo="0" devices="tripinfo_85" vType="DEFAULT_VEHTYPE" speedFactor="1.03" vaporized=""/>
    <tripinfo id="63" depart="282.00" departLane="left0A0_0" departPos="5.10" departSpeed="0.00" departDelay="0.00" arrival="529.00" arrivalLane="D2right2_0" arrivalPos="286.40" arrivalSpeed="13.47" duration="247.00" routeLength="2080.05" waitingTime="51.00" waitingCount="6" stopTime="0.00" timeLoss="93.98" rerouteNo="0" devices="tripinfo_63" vType="DEFAULT_VEHTYPE" speedFactor="0.98" vaporized=""/>
    <tripinfo id="111" depart="461.00" departLane="bottom2C0_0" departPos="5.10" departSpeed="0.00" departDelay="0.00" arrival="530.00" arrivalLane="D0bottom3_0" arrivalPos="286.40" arrivalSpeed="14.86" duration="69.00" routeLength="858.56" waitingTime="1.00" waitingCount="1" stopTime="0.00" timeLoss="13.83" rerouteNo="0" devices="tripinfo_111" vType="DEFAULT_VEHTYPE" speedFactor="1.16" vaporized=""/>
    <tripinfo id="60" depart="259.00" departLane="top2C3_0" departPos="5.10" departSpeed="0.00" departDelay="0.00" arrival="539.00" arrivalLane="C3top2_0" arrivalPos="286.40" arrivalSpeed="14.20" duration="280.00" routeLength="1748.75" waitingTime="118.00" waitingCount="5" stopTime="0.00" timeLoss="155.00" rerouteNo="0" devices="tripinfo_60" vType="DEFAULT_VEHTYPE" speedFactor="1.02" vaporized=""/>
    <tripinfo id="16" depart="112.00" departLane="top3D3_0" departPos="5.10" departSpeed="0.00" departDelay="0.00" arrival="542.00" arrivalLane="A0left0_0" arrivalPos="286.40" arrivalSpeed="12.29" duration="430.00" routeLength="2380.45" waitingTime="200.00" waitingCount="6" stopTime="0.00" timeLoss="237.70" rerouteNo="0" devices="tripinfo_16" vType="DEFAULT_VEHTYPE" speedFactor="0.90" vaporized=""/>
    <tripinfo id="67" depart="306.00" departLane="right1D1_0" departPos="5.10" departSpeed="0.00" departDelay="0.00" arrival="542.00" arrivalLane="A0left0_1" arrivalPos="286.40" arrivalSpeed="12.11" duration="236.00" routeLength="1782.59" waitingTime="68.00" waitingCount="4" stopTime="0.00" timeLoss="100.96" rerouteNo="0" devices="tripinfo_67" vType="DEFAULT_VEHTYPE" speedFactor="0.96" vaporized=""/>