<?xml version="1.0" encoding="UTF-8"?>

<!-- generated on 12/10/21 14:03:17 by Eclipse SUMO sumo Version 1.7.0
<configuration xmlns:xsi="http://www.w3.org/2001/XMLSchema-instance" xsi:noNamespaceSchemaLocation="http://sumo.dlr.de/xsd/sumoConfiguration.xsd">

    <input>
        <net-file value="C:\Users\longs\Desktop\RESCO-main\environments\grid4x4\grid4x4.net.xml"/>
        <route-files value="C:\Users\longs\Desktop\RESCO-main\environments\grid4x4\grid4x4_44.rou.xml"/>
    </input>

    <output>
        <tripinfo-output value="C:\Users\longs\Desktop\RESCO-main\logs\STOCHASTIC-tr1-grid4x4-0-mplight-wait\tripinfo_44.xml"/>
        <tripinfo-output.write-unfinished value="true"/>
    </output>

    <processing>
        <time-to-teleport value="-1"/>
    </processing>

    <report>
        <no-warnings value="true"/>
        <no-step-log value="true"/>
    </report>

    <traci_server>
        <remote-port value="59467"/>
    </traci_server>

    <random_number>
        <random value="true"/>
    </random_number>

</configuration>
-->

<tripinfos xmlns:xsi="http://www.w3.org/2001/XMLSchema-instance" xsi:noNamespaceSchemaLocation="http://sumo.dlr.de/xsd/tripinfo_file.xsd">
    <tripinfo id="9" depart="30.00" departLane="bottom0A0_0" departPos="5.10" departSpeed="0.00" departDelay="0.00" arrival="149.00" arrivalLane="A1left1_0" arrivalPos="286.40" arrivalSpeed="13.95" duration="119.00" routeLength="897.72" waitingTime="40.00" waitingCount="1" stopTime="0.00" timeLoss="55.36" rerouteNo="0" devices="tripinfo_9" vType="DEFAULT_VEHTYPE" speedFactor="1.03" vaporized=""/>
    <tripinfo id="20" depart="89.00" departLane="right0D0_0" departPos="5.10" departSpeed="0.00" departDelay="0.00" arrival="184.00" arrivalLane="D2right2_0" arrivalPos="286.40" arrivalSpeed="15.21" duration="95.00" routeLength="1161.43" waitingTime="2.00" waitingCount="2" stopTime="0.00" timeLoss="20.83" rerouteNo="0" devices="tripinfo_20" vType="DEFAULT_VEHTYPE" speedFactor="1.15" vaporized=""/>
    <tripinfo id="25" depart="119.00" departLane="top0A3_0" departPos="5.10" departSpeed="0.00" departDelay="0.00" arrival="188.00" arrivalLane="A2left2_0" arrivalPos="286.40" arrivalSpeed="14.05" duration="69.00" routeLength="876.90" waitingTime="0.00" waitingCount="0" stopTime="0.00" timeLoss="8.75" rerouteNo="0" devices="tripinfo_25" vType="DEFAULT_VEHTYPE" speedFactor="1.07" vaporized=""/>
    <tripinfo id="7" depart="24.00" departLane="right2D2_0" departPos="5.10" departSpeed="0.00" departDelay="0.00" arrival="189.00" arrivalLane="C3top2_0" arrivalPos="286.40" arrivalSpeed="13.62" duration="165.00" routeLength="1179.77" waitingTime="58.00" waitingCount="3" stopTime="0.00" timeLoss="80.87" rerouteNo="0" devices="tripinfo_7" vType="DEFAULT_VEHTYPE" speedFactor="1.03" vaporized=""/>
    <tripinfo id="30" depart="138.00" departLane="bottom3D0_0" departPos="5.10" departSpeed="0.00" departDelay="0.00" arrival="191.00" arrivalLane="D0right0_0" arrivalPos="286.40" arrivalSpeed="14.25" duration="53.00" routeLength="576.73" waitingTime="1.00" waitingCount="1" stopTime="0.00" timeLoss="12.88" rerouteNo="0" devices="tripinfo_30" vType="DEFAULT_VEHTYPE" speedFactor="1.06" vaporized=""/>
    <tripinfo id="1" depart="4.00" departLane="right0D0_0" departPos="5.10" departSpeed="0.00" departDelay="0.00" arrival="199.00" arrivalLane="A0bottom0_0" arrivalPos="286.40" arrivalSpeed="14.07" duration="195.00" routeLength="1498.06" waitingTime="61.00" waitingCount="3" stopTime="0.00" timeLoss="88.46" rerouteNo="0" devices="tripinfo_1" vType="DEFAULT_VEHTYPE" speedFactor="1.02" vaporized=""/>
    <tripinfo id="6" depart="18.00" departLane="top2C3_0" departPos="5.10" departSpeed="0.00" departDelay="0.00" arrival="199.00" arrivalLane="C0bottom2_0" arrivalPos="286.40" arrivalSpeed="13.96" duration="181.00" routeLength="1495.58" waitingTime="46.00" waitingCount="4" stopTime="0.00" timeLoss="76.48" rerouteNo="0" devices="tripinfo_6" vType="DEFAULT_VEHTYPE" speedFactor="1.03" vaporized=""/>
    <tripinfo id="13" depart="40.00" departLane="bottom2C0_0" departPos="5.10" departSpeed="0.00" departDelay="0.00" arrival="201.00" arrivalLane="D1right1_0" arrivalPos="286.40" arrivalSpeed="12.77" duration="161.00" routeLength="1179.77" waitingTime="48.00" waitingCount="2" stopTime="0.00" timeLoss="68.35" rerouteNo="0" devices="tripinfo_13" vType="DEFAULT_VEHTYPE" speedFactor="0.93" vaporized=""/>
    <tripinfo id="3" depart="11.00" departLane="right0D0_0" departPos="5.10" departSpeed="0.00" departDelay="0.00" arrival="202.00" arrivalLane="A0bottom0_0" arrivalPos="286.40" arrivalSpeed="13.73" duration="191.00" routeLength="1498.06" waitingTime="47.00" waitingCount="3" stopTime="0.00" timeLoss="81.59" rerouteNo="0" devices="tripinfo_3" vType="DEFAULT_VEHTYPE" speedFactor="0.99" vaporized=""/>
    <tripinfo id="28" depart="129.00" departLane="left3A3_0" departPos="5.10" departSpeed="0.00" departDelay="0.00" arrival="211.00" arrivalLane="A2left2_0" arrivalPos="286.40" arrivalSpeed="13.11" duration="82.00" routeLength="858.56" waitingTime="2.00" waitingCount="2" stopTime="0.00" timeLoss="18.82" rerouteNo="0" devices="tripinfo_28" vType="DEFAULT_VEHTYPE" speedFactor="1.00" vaporized=""/>
    <tripinfo id="2" depart="8.00" departLane="bottom1B0_0" departPos="5.10" departSpeed="0.00" departDelay="0.00" arrival="250.00" arrivalLane="B0bottom1_0" arrivalPos="286.40" arrivalSpeed="12.62" duration="242.00" routeLength="1748.75" waitingTime="78.00" waitingCount="5" stopTime="0.00" timeLoss="112.81" rerouteNo="0" devices="tripinfo_2" vType="DEFAULT_VEHTYPE" speedFactor="1.00" vaporized=""/>
    <tripinfo id="11" depart="34.00" departLane="right0D0_0" departPos="5.10" departSpeed="0.00" departDelay="0.00" arrival="251.00" arrivalLane="A2left2_0" arrivalPos="286.40" arrivalSpeed="12.92" duration="217.00" routeLength="2082.76" waitingTime="30.00" waitingCount="3" stopTime="0.00" timeLoss="65.32" rerouteNo="0" devices="tripinfo_11" vType="DEFAULT_VEHTYPE" speedFactor="1.00" vaporized=""/>
    <tripinfo id="10" depart="33.00" departLane="bottom2C0_0" departPos="5.10" departSpeed="0.00" departDelay="0.00" arrival="252.00" arrivalLane="A3left3_1" arrivalPos="286.40" arrivalSpeed="12.87" duration="219.00" routeLength="2095.69" waitingTime="25.00" waitingCount="5" stopTime="0.00" timeLoss="67.54" rerouteNo="0" devices="tripinfo_10" vType="DEFAULT_VEHTYPE" speedFactor="1.00" vaporized=""/>
    <tripinfo id="14" depart="46.00" departLane="bottom3D0_0" departPos="5.10" departSpeed="0.00" departDelay="0.00" arrival="252.00" arrivalLane="B0bottom1_0" arrivalPos="286.40" arrivalSpeed="13.47" duration="206.00" routeLength="1197.66" waitingTime="91.00" waitingCount="3" stopTime="0.00" timeLoss="117.59" rerouteNo="0" devices="tripinfo_14" vType="DEFAULT_VEHTYPE" speedFactor="0.99" vaporized=""/>
    <tripinfo id="19" depart="80.00" departLane="top2C3_0" departPos="5.10" departSpeed="0.00" departDelay="0.00" arrival="253.00" arrivalLane="A3left3_0" arrivalPos="286.40" arrivalSpeed="11.04" duration="173.00" routeLength="1179.77" waitingTime="49.00" waitingCount="3" stopTime="0.00" timeLoss="73.01" rerouteNo="0" devices="tripinfo_19" vType="DEFAULT_VEHTYPE" speedFactor="0.86" vaporized=""/>
    <tripinfo id="16" depart="66.00" departLane="top1B3_0" departPos="5.10" departSpeed="0.00" departDelay="0.00" arrival="258.00" arrivalLane="A0bottom0_0" arrivalPos="286.40" arrivalSpeed="14.08" duration="192.00" routeLength="1782.72" waitingTime="35.00" waitingCount="4" stopTime="0.00" timeLoss="69.20" rerouteNo="0" devices="tripinfo_16" vType="DEFAULT_VEHTYPE" speedFactor="1.06" vaporized=""/>
    <tripinfo id="35" depart="173.00" departLane="top2C3_0" departPos="5.10" departSpeed="0.00" departDelay="0.00" arrival="259.00" arrivalLane="D3top3_0" arrivalPos="286.40" arrivalSpeed="14.25" duration="86.00" routeLength="894.86" waitingTime="6.00" waitingCount="2" stopTime="0.00" timeLoss="22.09" rerouteNo="0" devices="tripinfo_35" vType="DEFAULT_VEHTYPE" speedFactor="1.03" vaporized=""/>
    <tripinfo id="24" depart="107.00" departLane="top3D3_0" departPos="5.10" departSpeed="0.00" departDelay="0.00" arrival="269.00" arrivalLane="D1right1_0" arrivalPos="286.40" arrivalSpeed="13.41" duration="162.00" routeLength="1197.89" waitingTime="63.00" waitingCount="1" stopTime="0.00" timeLoss="77.46" rerouteNo="0" devices="tripinfo_24" vType="DEFAULT_VEHTYPE" speedFactor="1.03" vaporized=""/>
    <tripinfo id="0" depart="0.00" departLane="right2D2_0" departPos="5.10" departSpeed="0.00" departDelay="0.00" arrival="278.00" arrivalLane="B0bottom1_0" arrivalPos="286.40" arrivalSpeed="14.09" duration="278.00" routeLength="1795.52" waitingTime="126.00" waitingCount="4" stopTime="0.00" timeLoss="158.98" rerouteNo="0" devices="tripinfo_0" vType="DEFAULT_VEHTYPE" speedFactor="1.09" vaporized=""/>
    <tripinfo id="32" depart="149.00" departLane="top2C3_0" departPos="5.10" departSpeed="0.00" departDelay="0.00" arrival="287.00" arrivalLane="A3top0_0" arrivalPos="286.40" arrivalSpeed="9.23" duration="138.00" routeLength="1161.43" waitingTime="2.00" waitingCount="2" stopTime="0.00" timeLoss="21.58" rerouteNo="0" devices="tripinfo_32" vType="DEFAULT_VEHTYPE" speedFactor="0.73" vaporized=""/>
    <tripinfo id="33" depart="156.00" departLane="top2C3_0" departPos="5.10" departSpeed="0.00" departDelay="0.00" arrival="287.00" arrivalLane="A3top0_1" arrivalPos="286.40" arrivalSpeed="12.93" duration="131.00" routeLength="1161.43" waitingTime="2.00" waitingCount="2" stopTime="0.00" timeLoss="43.70" rerouteNo="0" devices="tripinfo_33" vType="DEFAULT_VEHTYPE" speedFactor="0.97" vaporized=""/>
    <tripinfo id="31" depart="142.00" departLane="top1B3_0" departPos="5.10" departSpeed="0.00" departDelay="0.00" arrival="304.00" arrivalLane="D3right3_0" arrivalPos="286.40" arrivalSpeed="12.57" duration="162.00" routeLength="1195.18" waitingTime="53.00" waitingCount="2" stopTime="0.00" timeLoss="70.68" rerouteNo="0" devices="tripinfo_31" vType="DEFAULT_VEHTYPE" speedFactor="0.95" vaporized=""/>
    <tripinfo id="5" depart="18.00" departLane="bottom0A0_0" departPos="5.10" departSpeed="0.00" departDelay="0.00" arrival="311.00" arrivalLane="D2right2_0" arrivalPos="286.40" arrivalSpeed="13.32" duration="293.00" routeLength="2080.28" waitingTime="109.00" waitingCount="5" stopTime="0.00" timeLoss="147.24" rerouteNo="0" devices="tripinfo_5" vType="DEFAULT_VEHTYPE" speedFactor="1.04" vaporized=""/>
    <tripinfo id="8" depart="29.00" departLane="right1D1_0" departPos="5.10" departSpeed="0.00" departDelay="0.00" arrival="311.00" arrivalLane="A3left3_0" arrivalPos="286.40" arrivalSpeed="11.69" duration="282.00" routeLength="2082.76" waitingTime="82.00" waitingCount="5" stopTime="0.00" timeLoss="119.78" rerouteNo="0" devices="tripinfo_8" vType="DEFAULT_VEHTYPE" speedFactor="0.93" vaporized=""/>
    <tripinfo id="26" depart="125.00" departLane="bottom2C0_0" departPos="5.10" departSpeed="0.00" departDelay="0.00" arrival="311.00" arrivalLane="D3top3_0" arrivalPos="286.40" arrivalSpeed="13.94" duration="186.00" routeLength="1782.72" waitingTime="33.00" waitingCount="2" stopTime="0.00" timeLoss="59.69" rerouteNo="0" devices="tripinfo_26" vType="DEFAULT_VEHTYPE" speedFactor="1.03" vaporized=""/>
    <tripinfo id="12" depart="34.00" departLane="right1D1_0" departPos="5.10" departSpeed="0.00" departDelay="0.00" arrival="323.00" arrivalLane="A3top0_0" arrivalPos="286.40" arrivalSpeed="11.17" duration="289.00" routeLength="2080.28" waitingTime="74.00" waitingCount="4" stopTime="0.00" timeLoss="114.48" rerouteNo="0" devices="tripinfo_12" vType="DEFAULT_VEHTYPE" speedFactor="0.86" vaporized=""/>
    <tripinfo id="55" depart="276.00" departLane="bottom3D0_0" departPos="5.10" departSpeed="0.00" departDelay="0.00" arrival="325.00" arrivalLane="D0right0_0" arrivalPos="286.40" arrivalSpeed="15.16" duration="49.00" routeLength="576.73" waitingTime="1.00" waitingCount="1" stopTime="0.00" timeLoss="11.73" rerouteNo="0" devices="tripinfo_55" vType="DEFAULT_VEHTYPE" speedFactor="1.14" vaporized=""/>
    <tripinfo id="21" depart="93.00" departLane="right3D3_0" departPos="5.10" departSpeed="0.00" departDelay="0.00" arrival="327.00" arrivalLane="A3top0_0" arrivalPos="286.40" arrivalSpeed="14.01" duration="234.00" routeLength="1477.24" waitingTime="98.00" waitingCount="4" stopTime="0.00" timeLoss="129.07" rerouteNo="0" devices="tripinfo_21" vType="DEFAULT_VEHTYPE" speedFactor="1.02" vaporized=""/>
    <tripinfo id="44" depart="234.00" departLane="top2C3_0" departPos="5.10" departSpeed="0.00" departDelay="0.00" arrival="338.00" arrivalLane="A3top0_0" arrivalPos="286.40" arrivalSpeed="12.80" duration="104.00" routeLength="1161.43" waitingTime="2.00" waitingCount="2" stopTime="0.00" timeLoss="18.53" rerouteNo="0" devices="tripinfo_44" vType="DEFAULT_VEHTYPE" speedFactor="1.00" vaporized=""/>
    <tripinfo id="53" depart="272.00" departLane="left0A0_0" departPos="5.10" departSpeed="0.00" departDelay="0.00" arrival="350.00" arrivalLane="B0bottom1_0" arrivalPos="286.40" arrivalSpeed="15.17" duration="78.00" routeLength="876.90" waitingTime="4.00" waitingCount="1" stopTime="0.00" timeLoss="19.68" rerouteNo="0" devices="tripinfo_53" vType="DEFAULT_VEHTYPE" speedFactor="1.10" vaporized=""/>
    <tripinfo id="56" depart="282.00" departLane="left2A2_0" departPos="5.10" departSpeed="0.00" departDelay="0.00" arrival="359.00" arrivalLane="A1left1_0" arrivalPos="286.40" arrivalSpeed="12.59" duration="77.00" routeLength="858.56" waitingTime="1.00" waitingCount="1" stopTime="0.00" timeLoss="12.82" rerouteNo="0" devices="tripinfo_56" vType="DEFAULT_VEHTYPE" speedFactor="0.98" vaporized=""/>
    <tripinfo id="61" depart="303.00" departLane="bottom3D0_0" departPos="5.10" departSpeed="0.00" departDelay="0.00" arrival="361.00" arrivalLane="D0right0_0" arrivalPos="286.40" arrivalSpeed="11.60" duration="58.00" routeLength="576.73" waitingTime="0.00" waitingCount="0" stopTime="0.00" timeLoss="9.01" rerouteNo="0" devices="tripinfo_61" vType="DEFAULT_VEHTYPE" speedFactor="0.87" vaporized=""/>
    <tripinfo id="50" depart="261.00" departLane="bottom1B0_0" departPos="5.10" departSpeed="0.00" departDelay="0.00" arrival="386.00" arrivalLane="D0bottom3_0" arrivalPos="286.40" arrivalSpeed="13.08" duration="125.00" routeLength="1161.43" waitingTime="16.00" waitingCount="3" stopTime="0.00" timeLoss="39.93" rerouteNo="0" devices="tripinfo_50" vType="DEFAULT_VEHTYPE" speedFactor="1.00" vaporized=""/>
    <tripinfo id="27" depart="126.00" departLane="left2A2_0" departPos="5.10" departSpeed="0.00" departDelay="0.00" arrival="398.00" arrivalLane="C3top2_0" arrivalPos="286.40" arrivalSpeed="14.98" duration="272.00" routeLength="1495.35" waitingTime="141.00" waitingCount="3" stopTime="0.00" timeLoss="171.11" rerouteNo="0" devices="tripinfo_27" vType="DEFAULT_VEHTYPE" speedFactor="1.08" vaporized=""/>
    <tripinfo id="15" depart="62.00" departLane="right1D1_0" departPos="5.10" departSpeed="0.00" departDelay="0.00" arrival="399.00" arrivalLane="A0left0_0" arrivalPos="286.40" arrivalSpeed="13.06" duration="337.00" routeLength="1782.59" waitingTime="173.00" waitingCount="4" stopTime="0.00" timeLoss="207.54" rerouteNo="0" devices="tripinfo_15" vType="DEFAULT_VEHTYPE" speedFactor="1.00" vaporized=""/>
    <tripinfo id="47" depart="251.00" departLane="right2D2_0" departPos="5.10" departSpeed="0.00" departDelay="0.00" arrival="399.00" arrivalLane="C3top2_1" arrivalPos="286.40" arrivalSpeed="15.18" duration="148.00" routeLength="1179.77" waitingTime="51.00" waitingCount="2" stopTime="0.00" timeLoss="70.66" rerouteNo="0" devices="tripinfo_47" vType="DEFAULT_VEHTYPE" speedFactor="1.11" vaporized=""/>
    <tripinfo id="63" depart="325.00" departLane="top2C3_0" departPos="5.10" departSpeed="0.00" departDelay="0.00" arrival="403.00" arrivalLane="D3right3_0" arrivalPos="286.40" arrivalSpeed="12.46" duration="78.00" routeLength="895.01" waitingTime="1.00" waitingCount="1" stopTime="0.00" timeLoss="11.58" rerouteNo="0" devices="tripinfo_63" vType="DEFAULT_VEHTYPE" speedFactor="0.98" vaporized=""/>
    <tripinfo id="17" depart="74.00" departLane="right0D0_0" departPos="5.10" departSpeed="0.00" departDelay="0.00" arrival="409.00" arrivalLane="A3left3_0" arrivalPos="286.40" arrivalSpeed="12.29" duration="335.00" routeLength="2382.93" waitingTime="118.00" waitingCount="3" stopTime="0.00" timeLoss="154.02" rerouteNo="0" devices="tripinfo_17" vType="DEFAULT_VEHTYPE" speedFactor="0.95" vaporized=""/>
    <tripinfo id="59" depart="289.00" departLane="right1D1_0" departPos="5.10" departSpeed="0.00" departDelay="0.00" arrival="409.00" arrivalLane="D0bottom3_0" arrivalPos="286.40" arrivalSpeed="13.46" duration="120.00" routeLength="895.01" waitingTime="39.00" waitingCount="2" stopTime="0.00" timeLoss="57.39" rerouteNo="0" devices="tripinfo_59" vType="DEFAULT_VEHTYPE" speedFactor="1.05" vaporized=""/>
    <tripinfo id="4" depart="17.00" departLane="bottom2C0_0" departPos="5.10" departSpeed="0.00" departDelay="0.00" arrival="419.00" arrivalLane="B3top1_1" arrivalPos="286.40" arrivalSpeed="14.10" duration="402.00" routeLength="1782.59" waitingTime="251.00" waitingCount="4" stopTime="0.00" timeLoss="284.04" rerouteNo="0" devices="tripinfo_4" vType="DEFAULT_VEHTYPE" speedFactor="1.10" vaporized=""/>
    <tripinfo id="18" depart="77.00" departLane="left2A2_0" departPos="5.10" departSpeed="0.00" departDelay="0.00" arrival="419.00" arrivalLane="B3top1_0" arrivalPos="286.40" arrivalSpeed="12.90" duration="342.00" routeLength="1195.18" waitingTime="231.00" waitingCount="3" stopTime="0.00" timeLoss="254.76" rerouteNo="0" devices="tripinfo_18" vType="DEFAULT_VEHTYPE" speedFactor="0.99" vaporized=""/>
    <tripinfo id="37" depart="184.00" departLane="bottom1B0_0" departPos="5.10" departSpeed="0.00" departDelay="0.00" arrival="421.00" arrivalLane="D2right2_0" arrivalPos="286.40" arrivalSpeed="11.64" duration="237.00" routeLength="1780.11" waitingTime="59.00" waitingCount="3" stopTime="0.00" timeLoss="95.77" rerouteNo="0" devices="tripinfo_37" vType="DEFAULT_VEHTYPE" speedFactor="0.92" vaporized=""/>
    <tripinfo id="38" depart="187.00" departLane="bottom1B0_0" departPos="5.10" departSpeed="0.00" departDelay="1.00" arrival="421.00" arrivalLane="B3top1_0" arrivalPos="286.40" arrivalSpeed="15.12" duration="234.00" routeLength="1495.58" waitingTime="97.00" waitingCount="4" stopTime="0.00" timeLoss="138.36" rerouteNo="0" devices="tripinfo_38" vType="DEFAULT_VEHTYPE" speedFactor="1.13" vaporized=""/>
    <tripinfo id="51" depart="269.00" departLane="bottom1B0_0" departPos="5.10" departSpeed="0.00" departDelay="0.00" arrival="436.00" arrivalLane="B3top1_0" arrivalPos="286.40" arrivalSpeed="15.62" duration="167.00" routeLength="1495.58" waitingTime="50.00" waitingCount="2" stopTime="0.00" timeLoss="76.93" rerouteNo="0" devices="tripinfo_51" vType="DEFAULT_VEHTYPE" speedFactor="1.20" vaporized=""/>
    <tripinfo id="58" depart="285.00" departLane="left0A0_0" departPos="5.10" departSpeed="0.00" departDelay="0.00" arrival="459.00" arrivalLane="D1right1_0" arrivalPos="286.40" arrivalSpeed="12.67" duration="174.00" routeLength="1782.59" waitingTime="19.00" waitingCount="3" stopTime="0.00" timeLoss="44.72" rerouteNo="0" devices="tripinfo_58" vType="DEFAULT_VEHTYPE" speedFactor="1.00" vaporized=""/>
    <tripinfo id="48" depart="255.00" departLane="top1B3_0" departPos="5.10" departSpeed="0.00" departDelay="0.00" arrival="462.00" arrivalLane="D1right1_0" arrivalPos="286.40" arrivalSpeed="12.50" duration="207.00" routeLength="1795.52" waitingTime="44.00" waitingCount="3" stopTime="0.00" timeLoss="73.82" rerouteNo="0" devices="tripinfo_48" vType="DEFAULT_VEHTYPE" speedFactor="0.98" vaporized=""/>
    <tripinfo id="23" depart="101.00" departLane="right3D3_0" departPos="5.10" departSpeed="0.00" departDelay="0.00" arrival="468.00" arrivalLane="D0right0_0" arrivalPos="286.40" arrivalSpeed="14.02" duration="367.00" routeLength="1497.83" waitingTime="231.00" waitingCount="4" stopTime="0.00" timeLoss="265.24" rerouteNo="0" devices="tripinfo_23" vType="DEFAULT_VEHTYPE" speedFactor="1.07" vaporized=""/>
    <tripinfo id="39" depart="210.00" departLane="top0A3_0" departPos="5.10" departSpeed="0.00" departDelay="0.00" arrival="468.00" arrivalLane="A3top0_0" arrivalPos="286.40" arrivalSpeed="13.31" duration="258.00" routeLength="1745.91" waitingTime="102.00" waitingCount="4" stopTime="0.00" timeLoss="133.22" rerouteNo="0" devices="tripinfo_39" vType="DEFAULT_VEHTYPE" speedFactor="1.03" vaporized=""/>
    <tripinfo id="29" depart="135.00" departLane="right3D3_0" departPos="5.10" departSpeed="0.00" departDelay="0.00" arrival="474.00" arrivalLane="D0right0_0" arrivalPos="286.40" arrivalSpeed="12.51" duration="339.00" routeLength="1497.83" waitingTime="190.00" waitingCount="4" stopTime="0.00" timeLoss="219.56" rerouteNo="0" devices="tripinfo_29" vType="DEFAULT_VEHTYPE" speedFactor="0.91" vaporized=""/>
    <tripinfo id="45" depart="239.00" departLane="top3D3_0" departPos="5.10" departSpeed="0.00" departDelay="0.00" arrival="480.00" arrivalLane="D1right1_0" arrivalPos="286.40" arrivalSpeed="12.38" duration="241.00" routeLength="1197.89" waitingTime="128.00" waitingCount="3" stopTime="0.00" timeLoss="152.25" rerouteNo="0" devices="tripinfo_45" vType="DEFAULT_VEHTYPE" speedFactor="0.98" vaporized=""/>
    <tripinfo id="90" depart="431.00" departLane="top0A3_0" departPos="5.10" departSpeed="0.00" departDelay="0.00" arrival="482.00" arrivalLane="A3left3_0" arrivalPos="286.40" arrivalSpeed="13.76" duration="51.00" routeLength="576.73" waitingTime="1.00" waitingCount="1" stopTime="0.00" timeLoss="10.46" rerouteNo="0" devices="tripinfo_90" vType="DEFAULT_VEHTYPE" speedFactor="1.06" vaporized=""/>
    <tripinfo id="69" depart="373.00" departLane="bottom3D0_0" departPos="5.10" departSpeed="0.00" departDelay="0.00" arrival="486.00" arrivalLane="D1right1_0" arrivalPos="286.40" arrivalSpeed="14.58" duration="113.00" routeLength="876.90" waitingTime="35.00" waitingCount="2" stopTime="0.00" timeLoss="53.09" rerouteNo="0" devices="tripinfo_69" vType="DEFAULT_VEHTYPE" speedFactor="1.07" vaporized=""/>
    <tripinfo id="65" depart="345.00" departLane="left1A1_0" departPos="5.10" departSpeed="0.00" departDelay="0.00" arrival="488.00" arrivalLane="A3left3_0" arrivalPos="286.40" arrivalSpeed="14.17" duration="143.00" routeLength="1197.66" waitingTime="45.00" waitingCount="2" stopTime="0.00" timeLoss="61.87" rerouteNo="0" devices="tripinfo_65" vType="DEFAULT_VEHTYPE" speedFactor="1.08" vaporized=""/>
    <tripinfo id="22" depart="95.00" departLane="right1D1_0" departPos="5.10" departSpeed="0.00" departDelay="0.00" arrival="496.00" arrivalLane="C0bottom2_0" arrivalPos="286.40" arrivalSpeed="15.47" duration="401.00" routeLength="1195.18" waitingTime="295.00" waitingCount="3" stopTime="0.00" timeLoss="327.29" rerouteNo="0" devices="tripinfo_22" vType="DEFAULT_VEHTYPE" speedFactor="1.18" vaporized=""/>
    <tripinfo id="46" depart="244.00" departLane="top1B3_0" departPos="5.10" departSpeed="0.00" departDelay="0.00" arrival="498.00" arrivalLane="A0bottom0_0" arrivalPos="286.40" arrivalSpeed="14.11" duration="254.00" routeLength="1782.72" waitingTime="92.00" waitingCount="5" stopTime="0.00" timeLoss="134.12" rerouteNo="0" devices="tripinfo_46" vType="DEFAULT_VEHTYPE" speedFactor="1.08" vaporized=""/>
    <tripinfo id="66" depart="345.00" departLane="top1B3_0" departPos="5.10" departSpeed="0.00" departDelay="0.00" arrival="500.00" arrivalLane="D3right3_0" arrivalPos="286.40" arrivalSpeed="13.36" duration="155.00" routeLength="1195.18" waitingTime="42.00" waitingCount="1" stopTime="0.00" timeLoss="65.20" rerouteNo="0" devices="tripinfo_66" vType="DEFAULT_VEHTYPE" speedFactor="0.96" vaporized=""/>
    <tripinfo id="40" depart="213.00" departLane="right0D0_0" departPos="5.10" departSpeed="0.00" departDelay="0.00" arrival="508.00" arrivalLane="A0bottom0_0" arrivalPos="286.40" arrivalSpeed="13.82" duration="295.00" routeLength="1498.06" waitingTime="171.00" waitingCount="2" stopTime="0.00" timeLoss="188.85" rerouteNo="0" devices="tripinfo_40" vType="DEFAULT_VEHTYPE" speedFactor="1.02" vaporized=""/>
    <tripinfo id="93" depart="438.00" departLane="top1B3_0" departPos="5.10" departSpeed="0.00" departDelay="0.00" arrival="515.00" arrivalLane="A3top0_0" arrivalPos="286.40" arrivalSpeed="15.40" duration="77.00" routeLength="858.56" waitingTime="2.00" waitingCount="2" stopTime="0.00" timeLoss="20.15" rerouteNo="0" devices="tripinfo_93" vType="DEFAULT_VEHTYPE" speedFactor="1.12" vaporized=""/>
    <tripinfo id="57" depart="282.00" departLane="bottom2C0_0" departPos="5.10" departSpeed="0.00" departDelay="0.00" arrival="521.00" arrivalLane="D1right1_0" arrivalPos="286.40" arrivalSpeed="12.37" duration="239.00" routeLength="1179.77" waitingTime="128.00" waitingCount="2" stopTime="0.00" timeLoss="149.11" rerouteNo="0" devices="tripinfo_57" vType="DEFAULT_VEHTYPE" speedFactor="0.96" vaporized=""/>
    <tripinfo id="36" depart="175.00" departLane="right0D0_0" departPos="5.10" departSpeed="0.00" departDelay="0.00" arrival="522.00" arrivalLane="C0bottom2_0" arrivalPos="286.40" arrivalSpeed="12.06" duration="347.00" routeLength="897.72" waitingTime="257.00" waitingCount="2" stopTime="0.00" timeLoss="275.97" rerouteNo="0" devices="tripinfo_36" vType="DEFAULT_VEHTYPE" speedFactor="0.92" vaporized=""/>
    <tripinfo id="95" depart="439.00" departLane="top0A3_0" departPos="5.10" departSpeed="0.00" departDelay="0.00" arrival="531.00" arrivalLane="B3top1_0" arrivalPos="286.40" arrivalSpeed="14.38" duration="92.00" routeLength="894.86" waitingTime="19.00" waitingCount="1" stopTime="0.00" timeLoss="31.84" rerouteNo="0" devices="tripinfo_95" vType="DEFAULT_VEHTYPE" speedFactor="1.10" vaporized=""/>
    <tripinfo id="49" depart="261.00" departLane="left3A3_0" departPos="5.10" departSpeed="0.00" departDelay="0.00" arrival="555.00" arrivalLane="A3left3_0" arrivalPos="286.40" arrivalSpeed="10.26" duration="294.00" routeLength="1748.75" waitingTime="105.00" waitingCount="4" stopTime="0.00" timeLoss="135.37" rerouteNo="0" devices="tripinfo_49" vType="DEFAULT_VEHTYPE" speedFactor="0.81" vaporized=""/>
    <tripinfo id="79" depart="389.00" departLane="left3A3_0" departPos="5.10" departSpeed="0.00" departDelay="0.00" arrival="556.00" arrivalLane="A1left1_0" arrivalPos="286.40" arrivalSpeed="10.57" duration="167.00" routeLength="1161.43" waitingTime="43.00" waitingCount="3" stopTime="0.00" timeLoss="65.58" rerouteNo="0" devices="tripinfo_79" vType="DEFAULT_VEHTYPE" speedFactor="0.84" vaporized=""/>
    <tripinfo id="68" depart="357.00" departLane="top3D3_0" departPos="5.10" departSpeed="0.00" departDelay="0.00" arrival="559.00" arrivalLane="A3top0_0" arrivalPos="286.40" arrivalSpeed="14.79" duration="202.00" routeLength="1461.60" waitingTime="74.00" waitingCount="3" stopTime="0.00" timeLoss="104.20" rerouteNo="0" devices="tripinfo_68" vType="DEFAULT_VEHTYPE" speedFactor="1.09" vaporized=""/>
    <tripinfo id="67" depart="357.00" departLane="bottom2C0_0" departPos="5.10" departSpeed="0.00" departDelay="0.00" arrival="564.00" arrivalLane="A0left0_0" arrivalPos="286.40" arrivalSpeed="10.73" duration="207.00" routeLength="1195.18" waitingTime="80.00" waitingCount="3" stopTime="0.00" timeLoss="103.04" rerouteNo="0" devices="tripinfo_67" vType="DEFAULT_VEHTYPE" speedFactor="0.84" vaporized=""/>
    <tripinfo id="75" depart="381.00" departLane="right2D2_0" departPos="5.10" departSpeed="0.00" departDelay="2.00" arrival="578.00" arrivalLane="D0right0_0" arrivalPos="286.40" arrivalSpeed="14.37" duration="197.00" routeLength="1197.66" waitingTime="91.00" waitingCount="3" stopTime="0.00" timeLoss="115.30" rerouteNo="0" devices="tripinfo_75" vType="DEFAULT_VEHTYPE" speedFactor="1.07" vaporized=""/>
    <tripinfo id="43" depart="228.00" departLane="bottom0A0_0" departPos="5.10" departSpeed="0.00" departDelay="0.00" arrival="609.00" arrivalLane="D3right3_0" arrivalPos="286.40" arrivalSpeed="14.11" duration="381.00" routeLength="2380.45" waitingTime="173.00" waitingCount="6" stopTime="0.00" timeLoss="220.44" rerouteNo="0" devices="tripinfo_43" vType="DEFAULT_VEHTYPE" speedFactor="1.08" vaporized=""/>
    <tripinfo id="74" depart="379.00" departLane="bottom1B0_0" departPos="5.10" departSpeed="0.00" departDelay="0.00" arrival="609.00" arrivalLane="A2left2_0" arrivalPos="286.40" arrivalSpeed="13.80" duration="230.00" routeLength="1495.35" waitingTime="95.00" waitingCount="4" stopTime="0.00" timeLoss="123.71" rerouteNo="0" devices="tripinfo_74" vType="DEFAULT_VEHTYPE" speedFactor="1.02" vaporized=""/>
    <tripinfo id="81" depart="394.00" departLane="left2A2_0" departPos="5.10" departSpeed="0.00" departDelay="0.00" arrival="609.00" arrivalLane="C3top2_0" arrivalPos="286.40" arrivalSpeed="14.21" duration="215.00" routeLength="1495.35" waitingTime="90.00" waitingCount="3" stopTime="0.00" timeLoss="114.33" rerouteNo="0" devices="tripinfo_81" vType="DEFAULT_VEHTYPE" speedFactor="1.08" vaporized=""/>
    <tripinfo id="84" depart="401.00" departLane="top2C3_0" departPos="5.10" departSpeed="0.00" departDelay="0.00" arrival="611.00" arrivalLane="A2left2_1" arrivalPos="286.40" arrivalSpeed="15.05" duration="210.00" routeLength="1479.94" waitingTime="73.00" waitingCount="4" stopTime="0.00" timeLoss="113.94" rerouteNo="0" devices="tripinfo_84" vType="DEFAULT_VEHTYPE" speedFactor="1.12" vaporized=""/>
    <tripinfo id="73" depart="378.00" departLane="top2C3_0" departPos="5.10" departSpeed="0.00" departDelay="0.00" arrival="615.00" arrivalLane="A2left2_0" arrivalPos="286.40" arrivalSpeed="11.00" duration="237.00" routeLength="1479.94" waitingTime="85.00" waitingCount="3" stopTime="0.00" timeLoss="109.04" rerouteNo="0" devices="tripinfo_73" vType="DEFAULT_VEHTYPE" speedFactor="0.84" vaporized=""/>