<?xml version="1.0" encoding="UTF-8"?>

<!-- generated on 12/10/21 14:17:04 by Eclipse SUMO sumo Version 1.7.0
<configuration xmlns:xsi="http://www.w3.org/2001/XMLSchema-instance" xsi:noNamespaceSchemaLocation="http://sumo.dlr.de/xsd/sumoConfiguration.xsd">

    <input>
        <net-file value="C:\Users\longs\Desktop\RESCO-main\environments\grid4x4\grid4x4.net.xml"/>
        <route-files value="C:\Users\longs\Desktop\RESCO-main\environments\grid4x4\grid4x4_94.rou.xml"/>
    </input>

    <output>
        <tripinfo-output value="C:\Users\longs\Desktop\RESCO-main\logs\STOCHASTIC-tr1-grid4x4-0-mplight-wait\tripinfo_94.xml"/>
        <tripinfo-output.write-unfinished value="true"/>
    </output>

    <processing>
        <time-to-teleport value="-1"/>
    </processing>

    <report>
        <no-warnings value="true"/>
        <no-step-log value="true"/>
    </report>

    <traci_server>
        <remote-port value="60121"/>
    </traci_server>

    <random_number>
        <random value="true"/>
    </random_number>

</configuration>
-->

<tripinfos xmlns:xsi="http://www.w3.org/2001/XMLSchema-instance" xsi:noNamespaceSchemaLocation="http://sumo.dlr.de/xsd/tripinfo_file.xsd">
    <tripinfo id="0" depart="3.00" departLane="right0D0_0" departPos="5.10" departSpeed="0.00" departDelay="0.00" arrival="74.00" arrivalLane="C0bottom2_0" arrivalPos="286.40" arrivalSpeed="13.82" duration="71.00" routeLength="897.72" waitingTime="0.00" waitingCount="0" stopTime="0.00" timeLoss="5.32" rerouteNo="0" devices="tripinfo_0" vType="DEFAULT_VEHTYPE" speedFactor="1.00" vaporized=""/>
    <tripinfo id="26" depart="124.00" departLane="left3A3_0" departPos="5.10" departSpeed="0.00" departDelay="0.00" arrival="175.00" arrivalLane="A3top0_0" arrivalPos="286.40" arrivalSpeed="13.02" duration="51.00" routeLength="597.55" waitingTime="0.00" waitingCount="0" stopTime="0.00" timeLoss="4.91" rerouteNo="0" devices="tripinfo_26" vType="DEFAULT_VEHTYPE" speedFactor="0.95" vaporized=""/>
    <tripinfo id="21" depart="94.00" departLane="left2A2_0" departPos="5.10" departSpeed="0.00" departDelay="0.00" arrival="179.00" arrivalLane="A3top0_0" arrivalPos="286.40" arrivalSpeed="14.01" duration="85.00" routeLength="895.01" waitingTime="3.00" waitingCount="2" stopTime="0.00" timeLoss="20.35" rerouteNo="0" devices="tripinfo_21" vType="DEFAULT_VEHTYPE" speedFactor="1.02" vaporized=""/>
    <tripinfo id="15" depart="70.00" departLane="right2D2_0" departPos="5.10" departSpeed="0.00" departDelay="0.00" arrival="187.00" arrivalLane="D0bottom3_0" arrivalPos="286.40" arrivalSpeed="14.88" duration="117.00" routeLength="1195.18" waitingTime="22.00" waitingCount="2" stopTime="0.00" timeLoss="40.53" rerouteNo="0" devices="tripinfo_15" vType="DEFAULT_VEHTYPE" speedFactor="1.13" vaporized=""/>
    <tripinfo id="14" depart="70.00" departLane="top2C3_0" departPos="5.10" departSpeed="0.00" departDelay="0.00" arrival="201.00" arrivalLane="A3left3_0" arrivalPos="286.40" arrivalSpeed="12.00" duration="131.00" routeLength="1179.77" waitingTime="23.00" waitingCount="2" stopTime="0.00" timeLoss="39.79" rerouteNo="0" devices="tripinfo_14" vType="DEFAULT_VEHTYPE" speedFactor="0.94" vaporized=""/>
    <tripinfo id="4" depart="35.00" departLane="bottom1B0_0" departPos="5.10" departSpeed="0.00" departDelay="0.00" arrival="211.00" arrivalLane="A0left0_0" arrivalPos="286.40" arrivalSpeed="11.87" duration="176.00" routeLength="895.01" waitingTime="92.00" waitingCount="1" stopTime="0.00" timeLoss="103.61" rerouteNo="0" devices="tripinfo_4" vType="DEFAULT_VEHTYPE" speedFactor="0.90" vaporized=""/>
    <tripinfo id="13" depart="69.00" departLane="top3D3_0" departPos="5.10" departSpeed="0.00" departDelay="0.00" arrival="215.00" arrivalLane="A3top0_0" arrivalPos="286.40" arrivalSpeed="13.46" duration="146.00" routeLength="1461.60" waitingTime="18.00" waitingCount="4" stopTime="0.00" timeLoss="43.41" rerouteNo="0" devices="tripinfo_13" vType="DEFAULT_VEHTYPE" speedFactor="1.04" vaporized=""/>
    <tripinfo id="17" depart="83.00" departLane="left3A3_0" departPos="5.10" departSpeed="0.00" departDelay="0.00" arrival="229.00" arrivalLane="C3top2_0" arrivalPos="286.40" arrivalSpeed="13.08" duration="146.00" routeLength="1197.89" waitingTime="37.00" waitingCount="3" stopTime="0.00" timeLoss="59.39" rerouteNo="0" devices="tripinfo_17" vType="DEFAULT_VEHTYPE" speedFactor="1.00" vaporized=""/>
    <tripinfo id="1" depart="8.00" departLane="left1A1_0" departPos="5.10" departSpeed="0.00" departDelay="0.00" arrival="241.00" arrivalLane="D3top3_0" arrivalPos="286.40" arrivalSpeed="13.33" duration="233.00" routeLength="2095.69" waitingTime="57.00" waitingCount="3" stopTime="0.00" timeLoss="82.56" rerouteNo="0" devices="tripinfo_1" vType="DEFAULT_VEHTYPE" speedFactor="1.01" vaporized=""/>
    <tripinfo id="2" depart="8.00" departLane="right1D1_0" departPos="5.10" departSpeed="0.00" departDelay="0.00" arrival="243.00" arrivalLane="C3top2_0" arrivalPos="286.40" arrivalSpeed="10.56" duration="235.00" routeLength="1479.94" waitingTime="88.00" waitingCount="2" stopTime="0.00" timeLoss="108.39" rerouteNo="0" devices="tripinfo_2" vType="DEFAULT_VEHTYPE" speedFactor="0.85" vaporized=""/>
    <tripinfo id="6" depart="41.00" departLane="left1A1_0" departPos="5.10" departSpeed="0.00" departDelay="0.00" arrival="247.00" arrivalLane="D3top3_0" arrivalPos="286.40" arrivalSpeed="12.52" duration="206.00" routeLength="2095.69" waitingTime="18.00" waitingCount="2" stopTime="0.00" timeLoss="43.98" rerouteNo="0" devices="tripinfo_6" vType="DEFAULT_VEHTYPE" speedFactor="0.94" vaporized=""/>
    <tripinfo id="9" depart="54.00" departLane="left1A1_0" departPos="5.10" departSpeed="0.00" departDelay="0.00" arrival="249.00" arrivalLane="D0right0_0" arrivalPos="286.40" arrivalSpeed="13.41" duration="195.00" routeLength="1782.72" waitingTime="44.00" waitingCount="2" stopTime="0.00" timeLoss="66.42" rerouteNo="0" devices="tripinfo_9" vType="DEFAULT_VEHTYPE" speedFactor="1.01" vaporized=""/>
    <tripinfo id="32" depart="165.00" departLane="left3A3_0" departPos="5.10" departSpeed="0.00" departDelay="0.00" arrival="258.00" arrivalLane="B3top1_0" arrivalPos="286.40" arrivalSpeed="14.73" duration="93.00" routeLength="897.72" waitingTime="13.00" waitingCount="2" stopTime="0.00" timeLoss="32.46" rerouteNo="0" devices="tripinfo_32" vType="DEFAULT_VEHTYPE" speedFactor="1.09" vaporized=""/>
    <tripinfo id="24" depart="109.00" departLane="right2D2_0" departPos="5.10" departSpeed="0.00" departDelay="0.00" arrival="259.00" arrivalLane="D0right0_0" arrivalPos="286.40" arrivalSpeed="13.91" duration="150.00" routeLength="1197.66" waitingTime="48.00" waitingCount="2" stopTime="0.00" timeLoss="64.92" rerouteNo="0" devices="tripinfo_24" vType="DEFAULT_VEHTYPE" speedFactor="1.04" vaporized=""/>
    <tripinfo id="20" depart="88.00" departLane="bottom2C0_0" departPos="5.10" departSpeed="0.00" departDelay="0.00" arrival="271.00" arrivalLane="C0bottom2_0" arrivalPos="286.40" arrivalSpeed="12.36" duration="183.00" routeLength="1748.75" waitingTime="14.00" waitingCount="4" stopTime="0.00" timeLoss="45.22" rerouteNo="0" devices="tripinfo_20" vType="DEFAULT_VEHTYPE" speedFactor="0.93" vaporized=""/>
    <tripinfo id="38" depart="181.00" departLane="right0D0_0" departPos="5.10" departSpeed="0.00" departDelay="0.00" arrival="281.00" arrivalLane="D0bottom3_0" arrivalPos="286.40" arrivalSpeed="13.31" duration="100.00" routeLength="597.55" waitingTime="46.00" waitingCount="1" stopTime="0.00" timeLoss="54.68" rerouteNo="0" devices="tripinfo_38" vType="DEFAULT_VEHTYPE" speedFactor="0.98" vaporized=""/>
    <tripinfo id="18" depart="84.00" departLane="right3D3_0" departPos="5.10" departSpeed="0.00" departDelay="0.00" arrival="297.00" arrivalLane="D3right3_0" arrivalPos="286.40" arrivalSpeed="15.25" duration="213.00" routeLength="1745.91" waitingTime="77.00" waitingCount="3" stopTime="0.00" timeLoss="101.46" rerouteNo="0" devices="tripinfo_18" vType="DEFAULT_VEHTYPE" speedFactor="1.16" vaporized=""/>
    <tripinfo id="16" depart="76.00" departLane="left1A1_0" departPos="5.10" departSpeed="0.00" departDelay="0.00" arrival="300.00" arrivalLane="D3right3_0" arrivalPos="286.40" arrivalSpeed="14.84" duration="224.00" routeLength="2080.05" waitingTime="51.00" waitingCount="4" stopTime="0.00" timeLoss="83.47" rerouteNo="0" devices="tripinfo_16" vType="DEFAULT_VEHTYPE" speedFactor="1.08" vaporized=""/>
    <tripinfo id="5" depart="37.00" departLane="right1D1_0" departPos="5.10" departSpeed="0.00" departDelay="0.00" arrival="301.00" arrivalLane="A1left1_0" arrivalPos="286.40" arrivalSpeed="12.77" duration="264.00" routeLength="1495.58" waitingTime="127.00" waitingCount="2" stopTime="0.00" timeLoss="150.25" rerouteNo="0" devices="tripinfo_5" vType="DEFAULT_VEHTYPE" speedFactor="0.95" vaporized=""/>
    <tripinfo id="27" depart="128.00" departLane="left3A3_0" departPos="5.10" departSpeed="0.00" departDelay="0.00" arrival="307.00" arrivalLane="A0bottom0_0" arrivalPos="286.40" arrivalSpeed="14.82" duration="179.00" routeLength="1479.94" waitingTime="63.00" waitingCount="2" stopTime="0.00" timeLoss="82.98" rerouteNo="0" devices="tripinfo_27" vType="DEFAULT_VEHTYPE" speedFactor="1.12" vaporized=""/>
    <tripinfo id="42" depart="210.00" departLane="right1D1_0" departPos="5.10" departSpeed="0.00" departDelay="0.00" arrival="317.00" arrivalLane="D3right3_0" arrivalPos="286.40" arrivalSpeed="12.61" duration="107.00" routeLength="1161.43" waitingTime="2.00" waitingCount="2" stopTime="0.00" timeLoss="19.76" rerouteNo="0" devices="tripinfo_42" vType="DEFAULT_VEHTYPE" speedFactor="0.97" vaporized=""/>
    <tripinfo id="52" depart="268.00" departLane="top3D3_0" departPos="5.10" departSpeed="0.00" departDelay="0.00" arrival="317.00" arrivalLane="D3right3_1" arrivalPos="286.40" arrivalSpeed="14.11" duration="49.00" routeLength="597.55" waitingTime="0.00" waitingCount="0" stopTime="0.00" timeLoss="8.58" rerouteNo="0" devices="tripinfo_52" vType="DEFAULT_VEHTYPE" speedFactor="1.09" vaporized=""/>
    <tripinfo id="28" depart="136.00" departLane="bottom0A0_0" departPos="5.10" departSpeed="0.00" departDelay="0.00" arrival="318.00" arrivalLane="A2left2_0" arrivalPos="286.40" arrivalSpeed="14.12" duration="182.00" routeLength="1197.89" waitingTime="83.00" waitingCount="2" stopTime="0.00" timeLoss="101.43" rerouteNo="0" devices="tripinfo_28" vType="DEFAULT_VEHTYPE" speedFactor="1.08" vaporized=""/>
    <tripinfo id="19" depart="88.00" departLane="bottom1B0_0" departPos="5.10" departSpeed="0.00" departDelay="0.00" arrival="320.00" arrivalLane="D2right2_0" arrivalPos="286.40" arrivalSpeed="12.35" duration="232.00" routeLength="1780.11" waitingTime="72.00" waitingCount="3" stopTime="0.00" timeLoss="97.01" rerouteNo="0" devices="tripinfo_19" vType="DEFAULT_VEHTYPE" speedFactor="0.96" vaporized=""/>
    <tripinfo id="54" depart="274.00" departLane="left0A0_0" departPos="5.10" departSpeed="0.00" departDelay="0.00" arrival="329.00" arrivalLane="A0bottom0_0" arrivalPos="286.40" arrivalSpeed="13.01" duration="55.00" routeLength="576.73" waitingTime="1.00" waitingCount="1" stopTime="0.00" timeLoss="11.71" rerouteNo="0" devices="tripinfo_54" vType="DEFAULT_VEHTYPE" speedFactor="0.98" vaporized=""/>
    <tripinfo id="46" depart="236.00" departLane="left3A3_0" departPos="5.10" departSpeed="0.00" departDelay="0.00" arrival="334.00" arrivalLane="B3top1_0" arrivalPos="286.40" arrivalSpeed="12.39" duration="98.00" routeLength="897.72" waitingTime="17.00" waitingCount="1" stopTime="0.00" timeLoss="31.15" rerouteNo="0" devices="tripinfo_46" vType="DEFAULT_VEHTYPE" speedFactor="0.98" vaporized=""/>
    <tripinfo id="40" depart="200.00" departLane="bottom1B0_0" departPos="5.10" departSpeed="0.00" departDelay="0.00" arrival="338.00" arrivalLane="B3top1_0" arrivalPos="286.40" arrivalSpeed="14.14" duration="138.00" routeLength="1495.58" waitingTime="13.00" waitingCount="3" stopTime="0.00" timeLoss="39.78" rerouteNo="0" devices="tripinfo_40" vType="DEFAULT_VEHTYPE" speedFactor="1.10" vaporized=""/>
    <tripinfo id="3" depart="34.00" departLane="right2D2_0" departPos="5.10" departSpeed="0.00" departDelay="0.00" arrival="347.00" arrivalLane="C0bottom2_0" arrivalPos="286.40" arrivalSpeed="15.20" duration="313.00" routeLength="1495.35" waitingTime="186.00" waitingCount="4" stopTime="0.00" timeLoss="217.08" rerouteNo="0" devices="tripinfo_3" vType="DEFAULT_VEHTYPE" speedFactor="1.13" vaporized=""/>
    <tripinfo id="61" depart="296.00" departLane="top3D3_0" departPos="5.10" departSpeed="0.00" departDelay="0.00" arrival="348.00" arrivalLane="D3right3_0" arrivalPos="286.40" arrivalSpeed="14.65" duration="52.00" routeLength="597.55" waitingTime="0.00" waitingCount="0" stopTime="0.00" timeLoss="11.90" rerouteNo="0" devices="tripinfo_61" vType="DEFAULT_VEHTYPE" speedFactor="1.10" vaporized=""/>
    <tripinfo id="8" depart="54.00" departLane="right2D2_0" departPos="5.10" departSpeed="0.00" departDelay="0.00" arrival="349.00" arrivalLane="B0bottom1_0" arrivalPos="286.40" arrivalSpeed="13.16" duration="295.00" routeLength="1795.52" waitingTime="132.00" waitingCount="4" stopTime="0.00" timeLoss="163.69" rerouteNo="0" devices="tripinfo_8" vType="DEFAULT_VEHTYPE" speedFactor="0.99" vaporized=""/>
    <tripinfo id="10" depart="59.00" departLane="top1B3_0" departPos="5.10" departSpeed="0.00" departDelay="0.00" arrival="350.00" arrivalLane="C0bottom2_0" arrivalPos="286.40" arrivalSpeed="13.63" duration="291.00" routeLength="1782.59" waitingTime="137.00" waitingCount="4" stopTime="0.00" timeLoss="169.39" rerouteNo="0" devices="tripinfo_10" vType="DEFAULT_VEHTYPE" speedFactor="1.07" vaporized=""/>
    <tripinfo id="11" depart="67.00" departLane="bottom0A0_0" departPos="5.10" departSpeed="0.00" departDelay="0.00" arrival="360.00" arrivalLane="C3top2_0" arrivalPos="286.40" arrivalSpeed="13.49" duration="293.00" routeLength="2082.76" waitingTime="94.00" waitingCount="4" stopTime="0.00" timeLoss="138.94" rerouteNo="0" devices="tripinfo_11" vType="DEFAULT_VEHTYPE" speedFactor="0.98" vaporized=""/>
    <tripinfo id="49" depart="240.00" departLane="top3D3_0" departPos="5.10" departSpeed="0.00" departDelay="0.00" arrival="378.00" arrivalLane="D2right2_0" arrivalPos="286.40" arrivalSpeed="14.08" duration="138.00" routeLength="897.72" waitingTime="63.00" waitingCount="1" stopTime="0.00" timeLoss="76.06" rerouteNo="0" devices="tripinfo_49" vType="DEFAULT_VEHTYPE" speedFactor="1.05" vaporized=""/>
    <tripinfo id="64" depart="308.00" departLane="left1A1_0" departPos="5.10" departSpeed="0.00" departDelay="0.00" arrival="387.00" arrivalLane="A0left0_0" arrivalPos="286.40" arrivalSpeed="13.24" duration="79.00" routeLength="858.56" waitingTime="1.00" waitingCount="1" stopTime="0.00" timeLoss="17.35" rerouteNo="0" devices="tripinfo_64" vType="DEFAULT_VEHTYPE" speedFactor="1.02" vaporized=""/>
    <tripinfo id="25" depart="124.00" departLane="right2D2_0" departPos="5.10" departSpeed="0.00" departDelay="0.00" arrival="389.00" arrivalLane="A0bottom0_0" arrivalPos="286.40" arrivalSpeed="14.17" duration="265.00" routeLength="2095.69" waitingTime="86.00" waitingCount="4" stopTime="0.00" timeLoss="119.78" rerouteNo="0" devices="tripinfo_25" vType="DEFAULT_VEHTYPE" speedFactor="1.05" vaporized=""/>
    <tripinfo id="36" depart="180.00" departLane="top3D3_0" departPos="5.10" departSpeed="0.00" departDelay="0.00" arrival="389.00" arrivalLane="D0bottom3_0" arrivalPos="286.40" arrivalSpeed="14.10" duration="209.00" routeLength="1495.58" waitingTime="72.00" waitingCount="4" stopTime="0.00" timeLoss="102.46" rerouteNo="0" devices="tripinfo_36" vType="DEFAULT_VEHTYPE" speedFactor="1.02" vaporized=""/>
    <tripinfo id="47" depart="236.00" departLane="right0D0_0" departPos="5.10" departSpeed="0.00" departDelay="0.00" arrival="403.00" arrivalLane="A0left0_1" arrivalPos="286.40" arrivalSpeed="12.11" duration="167.00" routeLength="1495.58" waitingTime="18.00" waitingCount="2" stopTime="0.00" timeLoss="52.35" rerouteNo="0" devices="tripinfo_47" vType="DEFAULT_VEHTYPE" speedFactor="0.94" vaporized=""/>
    <tripinfo id="29" depart="141.00" departLane="top2C3_0" departPos="5.10" departSpeed="0.00" departDelay="0.00" arrival="404.00" arrivalLane="A0left0_2" arrivalPos="286.40" arrivalSpeed="13.59" duration="263.00" routeLength="2080.28" waitingTime="62.00" waitingCount="6" stopTime="0.00" timeLoss="119.89" rerouteNo="0" devices="tripinfo_29" vType="DEFAULT_VEHTYPE" speedFactor="1.05" vaporized=""/>
    <tripinfo id="60" depart="289.00" departLane="left3A3_0" departPos="5.10" departSpeed="0.00" departDelay="0.00" arrival="404.00" arrivalLane="B3top1_0" arrivalPos="286.40" arrivalSpeed="11.39" duration="115.00" routeLength="897.72" waitingTime="20.00" waitingCount="2" stopTime="0.00" timeLoss="36.03" rerouteNo="0" devices="tripinfo_60" vType="DEFAULT_VEHTYPE" speedFactor="0.83" vaporized=""/>
    <tripinfo id="62" depart="302.00" departLane="bottom1B0_0" departPos="5.10" departSpeed="0.00" departDelay="0.00" arrival="405.00" arrivalLane="A0bottom0_0" arrivalPos="286.40" arrivalSpeed="12.98" duration="103.00" routeLength="894.86" waitingTime="22.00" waitingCount="1" stopTime="0.00" timeLoss="33.69" rerouteNo="0" devices="tripinfo_62" vType="DEFAULT_VEHTYPE" speedFactor="0.95" vaporized=""/>
    <tripinfo id="30" depart="154.00" departLane="bottom3D0_0" departPos="5.10" departSpeed="0.00" departDelay="0.00" arrival="406.00" arrivalLane="A0left0_0" arrivalPos="286.40" arrivalSpeed="10.32" duration="252.00" routeLength="1495.35" waitingTime="81.00" waitingCount="4" stopTime="0.00" timeLoss="111.95" rerouteNo="0" devices="tripinfo_30" vType="DEFAULT_VEHTYPE" speedFactor="0.78" vaporized=""/>
    <tripinfo id="51" depart="249.00" departLane="bottom2C0_0" departPos="5.10" departSpeed="0.00" departDelay="0.00" arrival="408.00" arrivalLane="A1left1_0" arrivalPos="286.40" arrivalSpeed="14.63" duration="159.00" routeLength="1495.35" waitingTime="46.00" waitingCount="1" stopTime="0.00" timeLoss="60.28" rerouteNo="0" devices="tripinfo_51" vType="DEFAULT_VEHTYPE" speedFactor="1.10" vaporized=""/>
    <tripinfo id="22" depart="106.00" departLane="left0A0_0" departPos="5.10" departSpeed="0.00" departDelay="0.00" arrival="409.00" arrivalLane="A3left3_0" arrivalPos="286.40" arrivalSpeed="13.78" duration="303.00" routeLength="1497.83" waitingTime="177.00" waitingCount="2" stopTime="0.00" timeLoss="194.94" rerouteNo="0" devices="tripinfo_22" vType="DEFAULT_VEHTYPE" speedFactor="1.01" vaporized=""/>
    <tripinfo id="7" depart="44.00" departLane="bottom0A0_0" departPos="5.10" departSpeed="0.00" departDelay="0.00" arrival="410.00" arrivalLane="D2right2_0" arrivalPos="286.40" arrivalSpeed="12.91" duration="366.00" routeLength="2080.28" waitingTime="169.00" waitingCount="6" stopTime="0.00" timeLoss="213.82" rerouteNo="0" devices="tripinfo_7" vType="DEFAULT_VEHTYPE" speedFactor="0.99" vaporized=""/>
    <tripinfo id="31" depart="160.00" departLane="left1A1_0" departPos="5.10" departSpeed="0.00" departDelay="0.00" arrival="411.00" arrivalLane="D0right0_0" arrivalPos="286.40" arrivalSpeed="12.42" duration="251.00" routeLength="1782.72" waitingTime="87.00" waitingCount="1" stopTime="0.00" timeLoss="115.13" rerouteNo="0" devices="tripinfo_31" vType="DEFAULT_VEHTYPE" speedFactor="0.96" vaporized=""/>
    <tripinfo id="34" depart="169.00" departLane="left2A2_0" departPos="5.10" departSpeed="0.00" departDelay="0.00" arrival="421.00" arrivalLane="A2left2_0" arrivalPos="286.40" arrivalSpeed="15.18" duration="252.00" routeLength="1748.75" waitingTime="108.00" waitingCount="3" stopTime="0.00" timeLoss="134.66" rerouteNo="0" devices="tripinfo_34" vType="DEFAULT_VEHTYPE" speedFactor="1.10" vaporized=""/>
    <tripinfo id="53" depart="268.00" departLane="right2D2_0" departPos="5.10" departSpeed="0.00" departDelay="0.00" arrival="430.00" arrivalLane="D0bottom3_0" arrivalPos="286.40" arrivalSpeed="12.94" duration="162.00" routeLength="1195.18" waitingTime="52.00" waitingCount="2" stopTime="0.00" timeLoss="71.15" rerouteNo="0" devices="tripinfo_53" vType="DEFAULT_VEHTYPE" speedFactor="0.96" vaporized=""/>
    <tripinfo id="67" depart="328.00" departLane="bottom0A0_0" departPos="5.10" departSpeed="0.00" departDelay="0.00" arrival="432.00" arrivalLane="C0bottom2_0" arrivalPos="286.40" arrivalSpeed="15.10" duration="104.00" routeLength="1161.43" waitingTime="3.00" waitingCount="3" stopTime="0.00" timeLoss="30.67" rerouteNo="0" devices="tripinfo_67" vType="DEFAULT_VEHTYPE" speedFactor="1.16" vaporized=""/>
    <tripinfo id="35" depart="174.00" departLane="left2A2_0" departPos="5.10" departSpeed="0.00" departDelay="0.00" arrival="449.00" arrivalLane="D3right3_1" arrivalPos="286.40" arrivalSpeed="14.30" duration="275.00" routeLength="1782.59" waitingTime="123.00" waitingCount="4" stopTime="0.00" timeLoss="159.47" rerouteNo="0" devices="tripinfo_35" vType="DEFAULT_VEHTYPE" speedFactor="1.12" vaporized=""/>
    <tripinfo id="39" depart="200.00" departLane="top1B3_0" departPos="5.10" departSpeed="0.00" departDelay="0.00" arrival="449.00" arrivalLane="D2right2_0" arrivalPos="286.40" arrivalSpeed="13.78" duration="249.00" routeLength="1495.35" waitingTime="119.00" waitingCount="2" stopTime="0.00" timeLoss="142.81" rerouteNo="0" devices="tripinfo_39" vType="DEFAULT_VEHTYPE" speedFactor="1.03" vaporized=""/>
    <tripinfo id="12" depart="70.00" departLane="bottom0A0_0" departPos="5.10" departSpeed="0.00" departDelay="2.00" arrival="451.00" arrivalLane="D3right3_0" arrivalPos="286.40" arrivalSpeed="12.14" duration="381.00" routeLength="2380.45" waitingTime="146.00" waitingCount="7" stopTime="0.00" timeLoss="199.34" rerouteNo="0" devices="tripinfo_12" vType="DEFAULT_VEHTYPE" speedFactor="0.95" vaporized=""/>
    <tripinfo id="23" depart="108.00" departLane="left3A3_0" departPos="5.10" departSpeed="0.00" departDelay="0.00" arrival="453.00" arrivalLane="C0bottom2_0" arrivalPos="286.40" arrivalSpeed="11.00" duration="345.00" routeLength="2080.28" waitingTime="134.00" waitingCount="4" stopTime="0.00" timeLoss="164.40" rerouteNo="0" devices="tripinfo_23" vType="DEFAULT_VEHTYPE" speedFactor="0.83" vaporized=""/>
    <tripinfo id="79" depart="380.00" departLane="left3A3_0" departPos="5.10" departSpeed="0.00" departDelay="0.00" arrival="479.00" arrivalLane="A1left1_0" arrivalPos="286.40" arrivalSpeed="14.49" duration="99.00" routeLength="1161.43" waitingTime="1.00" waitingCount="1" stopTime="0.00" timeLoss="20.55" rerouteNo="0" devices="tripinfo_79" vType="DEFAULT_VEHTYPE" speedFactor="1.09" vaporized=""/>
    <tripinfo id="65" depart="314.00" departLane="right0D0_0" departPos="5.10" departSpeed="0.00" departDelay="0.00" arrival="482.00" arrivalLane="D3right3_0" arrivalPos="286.40" arrivalSpeed="15.55" duration="168.00" routeLength="1461.60" waitingTime="49.00" waitingCount="3" stopTime="0.00" timeLoss="74.12" rerouteNo="0" devices="tripinfo_65" vType="DEFAULT_VEHTYPE" speedFactor="1.13" vaporized=""/>
    <tripinfo id="43" depart="224.00" departLane="left1A1_0" departPos="5.10" departSpeed="0.00" departDelay="0.00" arrival="483.00" arrivalLane="A3left3_0" arrivalPos="286.40" arrivalSpeed="11.05" duration="259.00" routeLength="1197.66" waitingTime="137.00" waitingCount="3" stopTime="0.00" timeLoss="159.49" rerouteNo="0" devices="tripinfo_43" vType="DEFAULT_VEHTYPE" speedFactor="0.88" vaporized=""/>
    <tripinfo id="37" depart="180.00" departLane="right2D2_0" departPos="5.10" departSpeed="0.00" departDelay="0.00" arrival="489.00" arrivalLane="A2left2_0" arrivalPos="286.40" arrivalSpeed="13.04" duration="309.00" routeLength="1495.58" waitingTime="171.00" waitingCount="4" stopTime="0.00" timeLoss="201.58" rerouteNo="0" devices="tripinfo_37" vType="DEFAULT_VEHTYPE" speedFactor="1.01" vaporized=""/>
    <tripinfo id="73" depart="359.00" departLane="left3A3_0" departPos="5.10" departSpeed="0.00" departDelay="0.00" arrival="496.00" arrivalLane="C3top2_0" arrivalPos="286.40" arrivalSpeed="16.13" duration="137.00" routeLength="1197.89" waitingTime="44.00" waitingCount="2" stopTime="0.00" timeLoss="63.10" rerouteNo="0" devices="tripinfo_73" vType="DEFAULT_VEHTYPE" speedFactor="1.18" vaporized=""/>
    <tripinfo id="48" depart="239.00" departLane="bottom3D0_0" departPos="5.10" departSpeed="0.00" departDelay="0.00" arrival="502.00" arrivalLane="B0bottom1_0" arrivalPos="286.40" arrivalSpeed="11.65" duration="263.00" routeLength="1197.66" waitingTime="142.00" waitingCount="2" stopTime="0.00" timeLoss="165.00" rerouteNo="0" devices="tripinfo_48" vType="DEFAULT_VEHTYPE" speedFactor="0.89" vaporized=""/>
    <tripinfo id="59" depart="286.00" departLane="bottom1B0_0" departPos="5.10" departSpeed="0.00" departDelay="0.00" arrival="503.00" arrivalLane="B0bottom1_1" arrivalPos="286.40" arrivalSpeed="13.29" duration="217.00" routeLength="1748.75" waitingTime="56.00" waitingCount="3" stopTime="0.00" timeLoss="83.82" rerouteNo="0" devices="tripinfo_59" vType="DEFAULT_VEHTYPE" speedFactor="0.97" vaporized=""/>
    <tripinfo id="50" depart="242.00" departLane="bottom0A0_0" departPos="5.10" departSpeed="0.00" departDelay="0.00" arrival="508.00" arrivalLane="B3top1_0" arrivalPos="286.40" arrivalSpeed="10.57" duration="266.00" routeLength="1782.72" waitingTime="69.00" waitingCount="4" stopTime="0.00" timeLoss="98.56" rerouteNo="0" devices="tripinfo_50" vType="DEFAULT_VEHTYPE" speedFactor="0.78" vaporized=""/>
    <tripinfo id="57" depart="280.00" departLane="bottom3D0_0" departPos="5.10" departSpeed="0.00" departDelay="0.00" arrival="517.00" arrivalLane="A1left1_0" arrivalPos="286.40" arrivalSpeed="15.59" duration="237.00" routeLength="1795.52" waitingTime="94.00" waitingCount="3" stopTime="0.00" timeLoss="121.36" rerouteNo="0" devices="tripinfo_57" vType="DEFAULT_VEHTYPE" speedFactor="1.13" vaporized=""/>
    <tripinfo id="70" depart="353.00" departLane="right0D0_0" departPos="5.10" departSpeed="0.00" departDelay="0.00" arrival="529.00" arrivalLane="D0right0_0" arrivalPos="286.40" arrivalSpeed="13.21" duration="176.00" routeLength="1748.75" waitingTime="16.00" waitingCount="4" stopTime="0.00" timeLoss="48.73" rerouteNo="0" devices="tripinfo_70" vType="DEFAULT_VEHTYPE" speedFactor="1.01" vaporized=""/>
    <tripinfo id="96" depart="444.00" departLane="bottom1B0_0" departPos="5.10" departSpeed="0.00" departDelay="0.00" arrival="535.00" arrivalLane="C0bottom2_0" arrivalPos="286.40" arrivalSpeed="12.19" duration="91.00" routeLength="858.56" waitingTime="2.00" waitingCount="2" stopTime="0.00" timeLoss="19.52" rerouteNo="0" devices="tripinfo_96" vType="DEFAULT_VEHTYPE" speedFactor="0.89" vaporized=""/>
    <tripinfo id="45" depart="229.00" departLane="left0A0_0" departPos="5.10" departSpeed="0.00" departDelay="0.00" arrival="536.00" arrivalLane="D3right3_0" arrivalPos="286.40" arrivalSpeed="16.14" duration="307.00" routeLength="2380.22" waitingTime="110.00" waitingCount="5" stopTime="0.00" timeLoss="159.38" rerouteNo="0" devices="tripinfo_45" vType="DEFAULT_VEHTYPE" speedFactor="1.18" vaporized=""/>
    <tripinfo id="99" depart="460.00" departLane="right2D2_0" departPos="5.10" departSpeed="0.00" departDelay="0.00" arrival="544.00" arrivalLane="D3right3_0" arrivalPos="286.40" arrivalSpeed="13.28" duration="84.00" routeLength="858.56" waitingTime="2.00" waitingCount="2" stopTime="0.00" timeLoss="19.30" rerouteNo="0" devices="tripinfo_99" vType="DEFAULT_VEHTYPE" speedFactor="0.97" vaporized=""/>
    <tripinfo id="75" depart="370.00" departLane="left1A1_0" departPos="5.10" departSpeed="0.00" departDelay="0.00" arrival="547.00" arrivalLane="A3top0_0" arrivalPos="286.40" arrivalSpeed="14.05" duration="177.00" routeLength="1195.18" waitingTime="76.00" waitingCount="3" stopTime="0.00" timeLoss="98.72" rerouteNo="0" devices="tripinfo_75" vType="DEFAULT_VEHTYPE" speedFactor="1.10" vaporized=""/>
    <tripinfo id="110" depart="485.00" departLane="bottom0A0_0" departPos="5.10" departSpeed="0.00" departDelay="0.00" arrival="547.00" arrivalLane="A0left0_0" arrivalPos="286.40" arrivalSpeed="15.77" duration="62.00" routeLength="597.55" waitingTime="13.00" waitingCount="1" stopTime="0.00" timeLoss="23.23" rerouteNo="0" devices="tripinfo_110" vType="DEFAULT_VEHTYPE" speedFactor="1.15" vaporized=""/>
    <tripinfo id="58" depart="282.00" departLane="bottom2C0_0" departPos="5.10" departSpeed="0.00" departDelay="0.00" arrival="549.00" arrivalLane="A2left2_1" arrivalPos="286.40" arrivalSpeed="14.94" duration="267.00" routeLength="1795.52" waitingTime="115.00" waitingCount="4" stopTime="0.00" timeLoss="147.18" rerouteNo="0" devices="tripinfo_58" vType="DEFAULT_VEHTYPE" speedFactor="1.08" vaporized=""/>
    <tripinfo id="41" depart="204.00" departLane="right3D3_0" departPos="5.10" departSpeed="0.00" departDelay="0.00" arrival="550.00" arrivalLane="A2left2_0" arrivalPos="286.40" arrivalSpeed="12.47" duration="346.00" routeLength="1782.59" waitingTime="175.00" waitingCount="5" stopTime="0.00" timeLoss="210.02" rerouteNo="0" devices="tripinfo_41" vType="DEFAULT_VEHTYPE" speedFactor="0.95" vaporized=""/>
    <tripinfo id="78" depart="376.00" departLane="bottom2C0_0" departPos="5.10" departSpeed="0.00" departDelay="0.00" arrival="551.00" arrivalLane="C0bottom2_0" arrivalPos="286.40" arrivalSpeed="12.73" duration="175.00" routeLength="1748.75" waitingTime="9.00" waitingCount="3" stopTime="0.00" timeLoss="39.93" rerouteNo="0" devices="tripinfo_78" vType="DEFAULT_VEHTYPE" speedFactor="0.95" vaporized=""/>
    <tripinfo id="106" depart="472.00" departLane="right0D0_0" departPos="5.10" departSpeed="0.00" departDelay="0.00" arrival="551.00" arrivalLane="C0bottom2_1" arrivalPos="286.40" arrivalSpeed="13.25" duration="79.00" routeLength="897.72" waitingTime="2.00" waitingCount="1" stopTime="0.00" timeLoss="16.01" rerouteNo="0" devices="tripinfo_106" vType="DEFAULT_VEHTYPE" speedFactor="1.04" vaporized=""/>