<?xml version="1.0" encoding="UTF-8"?>

<!-- generated on 12/10/21 13:59:01 by Eclipse SUMO sumo Version 1.7.0
<configuration xmlns:xsi="http://www.w3.org/2001/XMLSchema-instance" xsi:noNamespaceSchemaLocation="http://sumo.dlr.de/xsd/sumoConfiguration.xsd">

    <input>
        <net-file value="C:\Users\longs\Desktop\RESCO-main\environments\grid4x4\grid4x4.net.xml"/>
        <route-files value="C:\Users\longs\Desktop\RESCO-main\environments\grid4x4\grid4x4_33.rou.xml"/>
    </input>

    <output>
        <tripinfo-output value="C:\Users\longs\Desktop\RESCO-main\logs\STOCHASTIC-tr1-grid4x4-0-mplight-wait\tripinfo_33.xml"/>
        <tripinfo-output.write-unfinished value="true"/>
    </output>

    <processing>
        <time-to-teleport value="-1"/>
    </processing>

    <report>
        <no-warnings value="true"/>
        <no-step-log value="true"/>
    </report>

    <traci_server>
        <remote-port value="59305"/>
    </traci_server>

    <random_number>
        <random value="true"/>
    </random_number>

</configuration>
-->

<tripinfos xmlns:xsi="http://www.w3.org/2001/XMLSchema-instance" xsi:noNamespaceSchemaLocation="http://sumo.dlr.de/xsd/tripinfo_file.xsd">
    <tripinfo id="0" depart="4.00" departLane="top2C3_0" departPos="5.10" departSpeed="0.00" departDelay="0.00" arrival="85.00" arrivalLane="B3top1_0" arrivalPos="286.40" arrivalSpeed="14.20" duration="81.00" routeLength="858.56" waitingTime="2.00" waitingCount="2" stopTime="0.00" timeLoss="19.38" rerouteNo="0" devices="tripinfo_0" vType="DEFAULT_VEHTYPE" speedFactor="1.03" vaporized=""/>
    <tripinfo id="3" depart="17.00" departLane="top0A3_0" departPos="5.10" departSpeed="0.00" departDelay="0.00" arrival="104.00" arrivalLane="A2left2_0" arrivalPos="286.40" arrivalSpeed="14.46" duration="87.00" routeLength="876.90" waitingTime="10.00" waitingCount="2" stopTime="0.00" timeLoss="27.41" rerouteNo="0" devices="tripinfo_3" vType="DEFAULT_VEHTYPE" speedFactor="1.08" vaporized=""/>
    <tripinfo id="9" depart="40.00" departLane="left2A2_0" departPos="5.10" departSpeed="0.00" departDelay="0.00" arrival="114.00" arrivalLane="A1left1_0" arrivalPos="286.40" arrivalSpeed="15.96" duration="74.00" routeLength="858.56" waitingTime="1.00" waitingCount="1" stopTime="0.00" timeLoss="20.81" rerouteNo="0" devices="tripinfo_9" vType="DEFAULT_VEHTYPE" speedFactor="1.19" vaporized=""/>
    <tripinfo id="18" depart="85.00" departLane="bottom0A0_0" departPos="5.10" departSpeed="0.00" departDelay="0.00" arrival="218.00" arrivalLane="C0bottom2_0" arrivalPos="286.40" arrivalSpeed="12.99" duration="133.00" routeLength="1161.43" waitingTime="28.00" waitingCount="2" stopTime="0.00" timeLoss="46.77" rerouteNo="0" devices="tripinfo_18" vType="DEFAULT_VEHTYPE" speedFactor="0.99" vaporized=""/>
    <tripinfo id="19" depart="86.00" departLane="top2C3_0" departPos="5.10" departSpeed="0.00" departDelay="0.00" arrival="222.00" arrivalLane="D2right2_0" arrivalPos="286.40" arrivalSpeed="11.85" duration="136.00" routeLength="1195.18" waitingTime="19.00" waitingCount="2" stopTime="0.00" timeLoss="38.64" rerouteNo="0" devices="tripinfo_19" vType="DEFAULT_VEHTYPE" speedFactor="0.89" vaporized=""/>
    <tripinfo id="6" depart="33.00" departLane="top1B3_0" departPos="5.10" departSpeed="0.00" departDelay="0.00" arrival="228.00" arrivalLane="D1right1_0" arrivalPos="286.40" arrivalSpeed="12.85" duration="195.00" routeLength="1795.52" waitingTime="40.00" waitingCount="1" stopTime="0.00" timeLoss="58.83" rerouteNo="0" devices="tripinfo_6" vType="DEFAULT_VEHTYPE" speedFactor="0.96" vaporized=""/>
    <tripinfo id="8" depart="40.00" departLane="right2D2_0" departPos="5.10" departSpeed="0.00" departDelay="0.00" arrival="230.00" arrivalLane="B3top1_0" arrivalPos="286.40" arrivalSpeed="12.76" duration="190.00" routeLength="1479.94" waitingTime="49.00" waitingCount="3" stopTime="0.00" timeLoss="76.02" rerouteNo="0" devices="tripinfo_8" vType="DEFAULT_VEHTYPE" speedFactor="0.94" vaporized=""/>
    <tripinfo id="16" depart="80.00" departLane="top0A3_0" departPos="5.10" departSpeed="0.00" departDelay="0.00" arrival="234.00" arrivalLane="A0left0_0" arrivalPos="286.40" arrivalSpeed="12.90" duration="154.00" routeLength="1477.24" waitingTime="23.00" waitingCount="2" stopTime="0.00" timeLoss="44.25" rerouteNo="0" devices="tripinfo_16" vType="DEFAULT_VEHTYPE" speedFactor="0.97" vaporized=""/>
    <tripinfo id="5" depart="30.00" departLane="bottom2C0_0" departPos="5.10" departSpeed="0.00" departDelay="0.00" arrival="242.00" arrivalLane="C3top2_0" arrivalPos="286.40" arrivalSpeed="12.17" duration="212.00" routeLength="1495.58" waitingTime="63.00" waitingCount="4" stopTime="0.00" timeLoss="94.30" rerouteNo="0" devices="tripinfo_5" vType="DEFAULT_VEHTYPE" speedFactor="0.92" vaporized=""/>
    <tripinfo id="17" depart="83.00" departLane="right2D2_0" departPos="5.10" departSpeed="0.00" departDelay="0.00" arrival="249.00" arrivalLane="D0right0_0" arrivalPos="286.40" arrivalSpeed="14.26" duration="166.00" routeLength="1197.66" waitingTime="57.00" waitingCount="3" stopTime="0.00" timeLoss="82.49" rerouteNo="0" devices="tripinfo_17" vType="DEFAULT_VEHTYPE" speedFactor="1.05" vaporized=""/>
    <tripinfo id="11" depart="51.00" departLane="top1B3_0" departPos="5.10" departSpeed="0.00" departDelay="0.00" arrival="251.00" arrivalLane="D3top3_0" arrivalPos="286.40" arrivalSpeed="12.74" duration="200.00" routeLength="1197.66" waitingTime="86.00" waitingCount="3" stopTime="0.00" timeLoss="111.14" rerouteNo="0" devices="tripinfo_11" vType="DEFAULT_VEHTYPE" speedFactor="0.99" vaporized=""/>
    <tripinfo id="12" depart="57.00" departLane="right2D2_0" departPos="5.10" departSpeed="0.00" departDelay="0.00" arrival="258.00" arrivalLane="B0bottom1_0" arrivalPos="286.40" arrivalSpeed="13.15" duration="201.00" routeLength="1795.52" waitingTime="38.00" waitingCount="2" stopTime="0.00" timeLoss="68.38" rerouteNo="0" devices="tripinfo_12" vType="DEFAULT_VEHTYPE" speedFactor="0.98" vaporized=""/>
    <tripinfo id="4" depart="30.00" departLane="right2D2_0" departPos="5.10" departSpeed="0.00" departDelay="0.00" arrival="262.00" arrivalLane="A3left3_0" arrivalPos="286.40" arrivalSpeed="13.46" duration="232.00" routeLength="1782.72" waitingTime="74.00" waitingCount="3" stopTime="0.00" timeLoss="103.07" rerouteNo="0" devices="tripinfo_4" vType="DEFAULT_VEHTYPE" speedFactor="1.01" vaporized=""/>
    <tripinfo id="21" depart="95.00" departLane="top3D3_0" departPos="5.10" departSpeed="0.00" departDelay="0.00" arrival="266.00" arrivalLane="A3left3_0" arrivalPos="286.40" arrivalSpeed="13.00" duration="171.00" routeLength="1479.94" waitingTime="33.00" waitingCount="3" stopTime="0.00" timeLoss="58.34" rerouteNo="0" devices="tripinfo_21" vType="DEFAULT_VEHTYPE" speedFactor="0.96" vaporized=""/>
    <tripinfo id="1" depart="12.00" departLane="bottom0A0_0" departPos="5.10" departSpeed="0.00" departDelay="0.00" arrival="277.00" arrivalLane="D0right0_0" arrivalPos="286.40" arrivalSpeed="15.03" duration="265.00" routeLength="1479.94" waitingTime="138.00" waitingCount="3" stopTime="0.00" timeLoss="166.09" rerouteNo="0" devices="tripinfo_1" vType="DEFAULT_VEHTYPE" speedFactor="1.09" vaporized=""/>
    <tripinfo id="23" depart="110.00" departLane="left2A2_0" departPos="5.10" departSpeed="0.00" departDelay="0.00" arrival="277.00" arrivalLane="D2right2_0" arrivalPos="286.40" arrivalSpeed="14.82" duration="167.00" routeLength="1495.58" waitingTime="44.00" waitingCount="3" stopTime="0.00" timeLoss="71.58" rerouteNo="0" devices="tripinfo_23" vType="DEFAULT_VEHTYPE" speedFactor="1.14" vaporized=""/>
    <tripinfo id="22" depart="105.00" departLane="left0A0_0" departPos="5.10" departSpeed="0.00" departDelay="0.00" arrival="279.00" arrivalLane="D0right0_1" arrivalPos="286.40" arrivalSpeed="14.83" duration="174.00" routeLength="1495.58" waitingTime="42.00" waitingCount="4" stopTime="0.00" timeLoss="78.07" rerouteNo="0" devices="tripinfo_22" vType="DEFAULT_VEHTYPE" speedFactor="1.13" vaporized=""/>
    <tripinfo id="32" depart="180.00" departLane="right1D1_0" departPos="5.10" departSpeed="0.00" departDelay="0.00" arrival="279.00" arrivalLane="D3right3_0" arrivalPos="286.40" arrivalSpeed="14.52" duration="99.00" routeLength="1161.43" waitingTime="1.00" waitingCount="1" stopTime="0.00" timeLoss="17.11" rerouteNo="0" devices="tripinfo_32" vType="DEFAULT_VEHTYPE" speedFactor="1.05" vaporized=""/>
    <tripinfo id="15" depart="77.00" departLane="bottom2C0_0" departPos="5.10" departSpeed="0.00" departDelay="0.00" arrival="281.00" arrivalLane="D3top3_0" arrivalPos="286.40" arrivalSpeed="13.76" duration="204.00" routeLength="1782.72" waitingTime="59.00" waitingCount="2" stopTime="0.00" timeLoss="81.36" rerouteNo="0" devices="tripinfo_15" vType="DEFAULT_VEHTYPE" speedFactor="1.06" vaporized=""/>
    <tripinfo id="14" depart="71.00" departLane="bottom0A0_0" departPos="5.10" departSpeed="0.00" departDelay="0.00" arrival="290.00" arrivalLane="D1right1_0" arrivalPos="286.40" arrivalSpeed="12.23" duration="219.00" routeLength="1780.11" waitingTime="50.00" waitingCount="4" stopTime="0.00" timeLoss="80.84" rerouteNo="0" devices="tripinfo_14" vType="DEFAULT_VEHTYPE" speedFactor="0.93" vaporized=""/>
    <tripinfo id="30" depart="162.00" departLane="left1A1_0" departPos="5.10" departSpeed="0.00" departDelay="0.00" arrival="291.00" arrivalLane="B0bottom1_0" arrivalPos="286.40" arrivalSpeed="13.53" duration="129.00" routeLength="1179.77" waitingTime="24.00" waitingCount="1" stopTime="0.00" timeLoss="41.05" rerouteNo="0" devices="tripinfo_30" vType="DEFAULT_VEHTYPE" speedFactor="0.98" vaporized=""/>
    <tripinfo id="31" depart="173.00" departLane="bottom3D0_0" departPos="5.10" departSpeed="0.00" departDelay="0.00" arrival="294.00" arrivalLane="D2right2_0" arrivalPos="286.40" arrivalSpeed="12.66" duration="121.00" routeLength="1177.07" waitingTime="12.00" waitingCount="2" stopTime="0.00" timeLoss="30.21" rerouteNo="0" devices="tripinfo_31" vType="DEFAULT_VEHTYPE" speedFactor="0.95" vaporized=""/>
    <tripinfo id="25" depart="120.00" departLane="left1A1_0" departPos="5.10" departSpeed="0.00" departDelay="0.00" arrival="295.00" arrivalLane="D1right1_0" arrivalPos="286.40" arrivalSpeed="10.81" duration="175.00" routeLength="1495.58" waitingTime="22.00" waitingCount="2" stopTime="0.00" timeLoss="48.93" rerouteNo="0" devices="tripinfo_25" vType="DEFAULT_VEHTYPE" speedFactor="0.86" vaporized=""/>
    <tripinfo id="7" depart="37.00" departLane="bottom3D0_0" departPos="5.10" departSpeed="0.00" departDelay="0.00" arrival="298.00" arrivalLane="A1left1_1" arrivalPos="286.40" arrivalSpeed="14.88" duration="261.00" routeLength="1795.52" waitingTime="96.00" waitingCount="3" stopTime="0.00" timeLoss="147.27" rerouteNo="0" devices="tripinfo_7" vType="DEFAULT_VEHTYPE" speedFactor="1.14" vaporized=""/>
    <tripinfo id="2" depart="13.00" departLane="bottom3D0_0" departPos="5.10" departSpeed="0.00" departDelay="0.00" arrival="302.00" arrivalLane="A1left1_0" arrivalPos="286.40" arrivalSpeed="11.19" duration="289.00" routeLength="1795.52" waitingTime="114.00" waitingCount="2" stopTime="0.00" timeLoss="140.12" rerouteNo="0" devices="tripinfo_2" vType="DEFAULT_VEHTYPE" speedFactor="0.87" vaporized=""/>
    <tripinfo id="48" depart="260.00" departLane="left0A0_0" departPos="5.10" departSpeed="0.00" departDelay="0.00" arrival="318.00" arrivalLane="A0bottom0_0" arrivalPos="286.40" arrivalSpeed="11.21" duration="58.00" routeLength="576.73" waitingTime="0.00" waitingCount="0" stopTime="0.00" timeLoss="6.97" rerouteNo="0" devices="tripinfo_48" vType="DEFAULT_VEHTYPE" speedFactor="0.84" vaporized=""/>
    <tripinfo id="29" depart="158.00" departLane="left1A1_0" departPos="5.10" departSpeed="0.00" departDelay="0.00" arrival="325.00" arrivalLane="D1right1_0" arrivalPos="286.40" arrivalSpeed="12.20" duration="167.00" routeLength="1495.58" waitingTime="28.00" waitingCount="2" stopTime="0.00" timeLoss="49.01" rerouteNo="0" devices="tripinfo_29" vType="DEFAULT_VEHTYPE" speedFactor="0.91" vaporized=""/>
    <tripinfo id="27" depart="132.00" departLane="bottom2C0_0" departPos="5.10" departSpeed="0.00" departDelay="0.00" arrival="326.00" arrivalLane="D3right3_0" arrivalPos="286.40" arrivalSpeed="13.87" duration="194.00" routeLength="1780.11" waitingTime="46.00" waitingCount="2" stopTime="0.00" timeLoss="67.00" rerouteNo="0" devices="tripinfo_27" vType="DEFAULT_VEHTYPE" speedFactor="1.02" vaporized=""/>
    <tripinfo id="33" depart="188.00" departLane="top2C3_0" departPos="5.10" departSpeed="0.00" departDelay="0.00" arrival="329.00" arrivalLane="D3top3_0" arrivalPos="286.40" arrivalSpeed="14.11" duration="141.00" routeLength="894.86" waitingTime="60.00" waitingCount="2" stopTime="0.00" timeLoss="77.85" rerouteNo="0" devices="tripinfo_33" vType="DEFAULT_VEHTYPE" speedFactor="1.05" vaporized=""/>
    <tripinfo id="38" depart="222.00" departLane="right0D0_0" departPos="5.10" departSpeed="0.00" departDelay="0.00" arrival="329.00" arrivalLane="C0bottom2_0" arrivalPos="286.40" arrivalSpeed="13.37" duration="107.00" routeLength="897.72" waitingTime="29.00" waitingCount="1" stopTime="0.00" timeLoss="41.01" rerouteNo="0" devices="tripinfo_38" vType="DEFAULT_VEHTYPE" speedFactor="0.99" vaporized=""/>
    <tripinfo id="53" depart="288.00" departLane="left0A0_0" departPos="5.10" departSpeed="0.00" departDelay="0.00" arrival="343.00" arrivalLane="A0bottom0_0" arrivalPos="286.40" arrivalSpeed="12.63" duration="55.00" routeLength="576.73" waitingTime="1.00" waitingCount="1" stopTime="0.00" timeLoss="11.05" rerouteNo="0" devices="tripinfo_53" vType="DEFAULT_VEHTYPE" speedFactor="0.97" vaporized=""/>
    <tripinfo id="26" depart="126.00" departLane="right1D1_0" departPos="5.10" departSpeed="0.00" departDelay="0.00" arrival="353.00" arrivalLane="A3left3_0" arrivalPos="286.40" arrivalSpeed="13.42" duration="227.00" routeLength="2082.76" waitingTime="45.00" waitingCount="3" stopTime="0.00" timeLoss="75.41" rerouteNo="0" devices="tripinfo_26" vType="DEFAULT_VEHTYPE" speedFactor="1.00" vaporized=""/>
    <tripinfo id="41" depart="225.00" departLane="bottom0A0_0" departPos="5.10" departSpeed="0.00" departDelay="0.00" arrival="375.00" arrivalLane="C0bottom2_0" arrivalPos="286.40" arrivalSpeed="14.41" duration="150.00" routeLength="1161.43" waitingTime="51.00" waitingCount="2" stopTime="0.00" timeLoss="71.34" rerouteNo="0" devices="tripinfo_41" vType="DEFAULT_VEHTYPE" speedFactor="1.09" vaporized=""/>
    <tripinfo id="28" depart="156.00" departLane="bottom2C0_0" departPos="5.10" departSpeed="0.00" departDelay="0.00" arrival="378.00" arrivalLane="B3top1_0" arrivalPos="286.40" arrivalSpeed="13.92" duration="222.00" routeLength="1782.59" waitingTime="67.00" waitingCount="4" stopTime="0.00" timeLoss="97.25" rerouteNo="0" devices="tripinfo_28" vType="DEFAULT_VEHTYPE" speedFactor="1.04" vaporized=""/>
    <tripinfo id="58" depart="300.00" departLane="bottom0A0_0" departPos="5.10" departSpeed="0.00" departDelay="0.00" arrival="387.00" arrivalLane="B0bottom1_0" arrivalPos="286.40" arrivalSpeed="11.74" duration="87.00" routeLength="858.56" waitingTime="1.00" waitingCount="1" stopTime="0.00" timeLoss="15.15" rerouteNo="0" devices="tripinfo_58" vType="DEFAULT_VEHTYPE" speedFactor="0.88" vaporized=""/>
    <tripinfo id="10" depart="45.00" departLane="left0A0_0" departPos="5.10" departSpeed="0.00" departDelay="0.00" arrival="389.00" arrivalLane="D2right2_0" arrivalPos="286.40" arrivalSpeed="13.80" duration="344.00" routeLength="2080.05" waitingTime="152.00" waitingCount="5" stopTime="0.00" timeLoss="196.23" rerouteNo="0" devices="tripinfo_10" vType="DEFAULT_VEHTYPE" speedFactor="1.03" vaporized=""/>
    <tripinfo id="49" depart="260.00" departLane="left1A1_0" departPos="5.10" departSpeed="0.00" departDelay="0.00" arrival="390.00" arrivalLane="B0bottom1_0" arrivalPos="286.40" arrivalSpeed="11.80" duration="130.00" routeLength="1179.77" waitingTime="16.00" waitingCount="2" stopTime="0.00" timeLoss="39.33" rerouteNo="0" devices="tripinfo_49" vType="DEFAULT_VEHTYPE" speedFactor="0.94" vaporized=""/>
    <tripinfo id="45" depart="236.00" departLane="left3A3_0" departPos="5.10" departSpeed="0.00" departDelay="0.00" arrival="402.00" arrivalLane="B3top1_0" arrivalPos="286.40" arrivalSpeed="12.75" duration="166.00" routeLength="897.72" waitingTime="78.00" waitingCount="1" stopTime="0.00" timeLoss="94.98" rerouteNo="0" devices="tripinfo_45" vType="DEFAULT_VEHTYPE" speedFactor="0.92" vaporized=""/>
    <tripinfo id="50" depart="265.00" departLane="left3A3_0" departPos="5.10" departSpeed="0.00" departDelay="0.00" arrival="418.00" arrivalLane="A1left1_0" arrivalPos="286.40" arrivalSpeed="12.74" duration="153.00" routeLength="1161.43" waitingTime="41.00" waitingCount="3" stopTime="0.00" timeLoss="65.81" rerouteNo="0" devices="tripinfo_50" vType="DEFAULT_VEHTYPE" speedFactor="0.97" vaporized=""/>
    <tripinfo id="37" depart="212.00" departLane="bottom3D0_0" departPos="5.10" departSpeed="0.00" departDelay="0.00" arrival="420.00" arrivalLane="B3top1_0" arrivalPos="286.40" arrivalSpeed="12.68" duration="208.00" routeLength="2080.05" waitingTime="22.00" waitingCount="3" stopTime="0.00" timeLoss="48.58" rerouteNo="0" devices="tripinfo_37" vType="DEFAULT_VEHTYPE" speedFactor="0.95" vaporized=""/>
    <tripinfo id="39" depart="223.00" departLane="left0A0_0" departPos="5.10" departSpeed="0.00" departDelay="0.00" arrival="431.00" arrivalLane="D0bottom3_0" arrivalPos="286.40" arrivalSpeed="12.23" duration="208.00" routeLength="1477.24" waitingTime="61.00" waitingCount="4" stopTime="0.00" timeLoss="92.27" rerouteNo="0" devices="tripinfo_39" vType="DEFAULT_VEHTYPE" speedFactor="0.93" vaporized=""/>
    <tripinfo id="42" depart="228.00" departLane="left2A2_0" departPos="5.10" departSpeed="0.00" departDelay="0.00" arrival="432.00" arrivalLane="D3right3_0" arrivalPos="286.40" arrivalSpeed="12.17" duration="204.00" routeLength="1782.59" waitingTime="27.00" waitingCount="4" stopTime="0.00" timeLoss="59.08" rerouteNo="0" devices="tripinfo_42" vType="DEFAULT_VEHTYPE" speedFactor="0.90" vaporized=""/>
    <tripinfo id="24" depart="113.00" departLane="right0D0_0" departPos="5.10" departSpeed="0.00" departDelay="0.00" arrival="437.00" arrivalLane="A3left3_0" arrivalPos="286.40" arrivalSpeed="14.37" duration="324.00" routeLength="2382.93" waitingTime="137.00" waitingCount="3" stopTime="0.00" timeLoss="168.56" rerouteNo="0" devices="tripinfo_24" vType="DEFAULT_VEHTYPE" speedFactor="1.11" vaporized=""/>
    <tripinfo id="65" depart="332.00" departLane="bottom2C0_0" departPos="5.10" departSpeed="0.00" departDelay="0.00" arrival="439.00" arrivalLane="A0bottom0_0" arrivalPos="286.40" arrivalSpeed="14.11" duration="107.00" routeLength="1197.66" waitingTime="2.00" waitingCount="2" stopTime="0.00" timeLoss="23.19" rerouteNo="0" devices="tripinfo_65" vType="DEFAULT_VEHTYPE" speedFactor="1.05" vaporized=""/>
    <tripinfo id="67" depart="341.00" departLane="left3A3_0" departPos="5.10" departSpeed="0.00" departDelay="0.00" arrival="446.00" arrivalLane="B3top1_0" arrivalPos="286.40" arrivalSpeed="15.62" duration="105.00" routeLength="897.72" waitingTime="30.00" waitingCount="2" stopTime="0.00" timeLoss="48.21" rerouteNo="0" devices="tripinfo_67" vType="DEFAULT_VEHTYPE" speedFactor="1.15" vaporized=""/>
    <tripinfo id="36" depart="209.00" departLane="left3A3_0" departPos="5.10" departSpeed="0.00" departDelay="0.00" arrival="450.00" arrivalLane="C0bottom2_1" arrivalPos="286.40" arrivalSpeed="14.10" duration="241.00" routeLength="2080.28" waitingTime="50.00" waitingCount="6" stopTime="0.00" timeLoss="96.76" rerouteNo="0" devices="tripinfo_36" vType="DEFAULT_VEHTYPE" speedFactor="1.04" vaporized=""/>
    <tripinfo id="13" depart="58.00" departLane="bottom3D0_0" departPos="5.10" departSpeed="0.00" departDelay="0.00" arrival="453.00" arrivalLane="A3left3_0" arrivalPos="286.40" arrivalSpeed="13.22" duration="395.00" routeLength="2395.86" waitingTime="171.00" waitingCount="5" stopTime="0.00" timeLoss="217.14" rerouteNo="0" devices="tripinfo_13" vType="DEFAULT_VEHTYPE" speedFactor="0.98" vaporized=""/>
    <tripinfo id="40" depart="223.00" departLane="left2A2_0" departPos="5.10" departSpeed="0.00" departDelay="0.00" arrival="453.00" arrivalLane="D2right2_0" arrivalPos="286.40" arrivalSpeed="11.10" duration="230.00" routeLength="1495.58" waitingTime="76.00" waitingCount="3" stopTime="0.00" timeLoss="105.69" rerouteNo="0" devices="tripinfo_40" vType="DEFAULT_VEHTYPE" speedFactor="0.87" vaporized=""/>
    <tripinfo id="56" depart="297.00" departLane="top3D3_0" departPos="5.10" departSpeed="0.00" departDelay="0.00" arrival="454.00" arrivalLane="A3left3_1" arrivalPos="286.40" arrivalSpeed="12.93" duration="157.00" routeLength="1479.94" waitingTime="24.00" waitingCount="2" stopTime="0.00" timeLoss="49.88" rerouteNo="0" devices="tripinfo_56" vType="DEFAULT_VEHTYPE" speedFactor="1.00" vaporized=""/>
    <tripinfo id="44" depart="235.00" departLane="right1D1_0" departPos="5.10" departSpeed="0.00" departDelay="0.00" arrival="455.00" arrivalLane="C0bottom2_0" arrivalPos="286.40" arrivalSpeed="10.70" duration="220.00" routeLength="1195.18" waitingTime="87.00" waitingCount="3" stopTime="0.00" timeLoss="110.47" rerouteNo="0" devices="tripinfo_44" vType="DEFAULT_VEHTYPE" speedFactor="0.79" vaporized=""/>
    <tripinfo id="74" depart="369.00" departLane="right2D2_0" departPos="5.10" departSpeed="0.00" departDelay="0.00" arrival="457.00" arrivalLane="D1right1_0" arrivalPos="286.40" arrivalSpeed="15.22" duration="88.00" routeLength="894.86" waitingTime="10.00" waitingCount="2" stopTime="0.00" timeLoss="28.46" rerouteNo="0" devices="tripinfo_74" vType="DEFAULT_VEHTYPE" speedFactor="1.10" vaporized=""/>
    <tripinfo id="34" depart="197.00" departLane="bottom1B0_0" departPos="5.10" departSpeed="0.00" departDelay="0.00" arrival="458.00" arrivalLane="A3top0_0" arrivalPos="286.40" arrivalSpeed="13.92" duration="261.00" routeLength="1782.59" waitingTime="105.00" waitingCount="4" stopTime="0.00" timeLoss="139.17" rerouteNo="0" devices="tripinfo_34" vType="DEFAULT_VEHTYPE" speedFactor="1.06" vaporized=""/>
    <tripinfo id="55" depart="296.00" departLane="left3A3_0" departPos="5.10" departSpeed="0.00" departDelay="0.00" arrival="459.00" arrivalLane="A0left0_0" arrivalPos="286.40" arrivalSpeed="12.15" duration="163.00" routeLength="1461.60" waitingTime="19.00" waitingCount="3" stopTime="0.00" timeLoss="47.37" rerouteNo="0" devices="tripinfo_55" vType="DEFAULT_VEHTYPE" speedFactor="0.92" vaporized=""/>
    <tripinfo id="60" depart="308.00" departLane="left1A1_0" departPos="5.10" departSpeed="0.00" departDelay="0.00" arrival="460.00" arrivalLane="A3top0_0" arrivalPos="286.40" arrivalSpeed="13.92" duration="152.00" routeLength="1195.18" waitingTime="47.00" waitingCount="2" stopTime="0.00" timeLoss="68.06" rerouteNo="0" devices="tripinfo_60" vType="DEFAULT_VEHTYPE" speedFactor="1.04" vaporized=""/>
    <tripinfo id="62" depart="314.00" departLane="left0A0_0" departPos="5.10" departSpeed="0.00" departDelay="0.00" arrival="482.00" arrivalLane="C0bottom2_0" arrivalPos="286.40" arrivalSpeed="16.34" duration="168.00" routeLength="1177.07" waitingTime="69.00" waitingCount="3" stopTime="0.00" timeLoss="96.03" rerouteNo="0" devices="tripinfo_62" vType="DEFAULT_VEHTYPE" speedFactor="1.20" vaporized=""/>
    <tripinfo id="35" depart="198.00" departLane="left3A3_0" departPos="5.10" departSpeed="0.00" departDelay="0.00" arrival="488.00" arrivalLane="D0right0_0" arrivalPos="286.40" arrivalSpeed="13.79" duration="290.00" routeLength="2382.93" waitingTime="90.00" waitingCount="4" stopTime="0.00" timeLoss="129.81" rerouteNo="0" devices="tripinfo_35" vType="DEFAULT_VEHTYPE" speedFactor="1.08" vaporized=""/>
    <tripinfo id="94" depart="439.00" departLane="right3D3_0" departPos="5.10" departSpeed="0.00" departDelay="0.00" arrival="494.00" arrivalLane="D3top3_0" arrivalPos="286.40" arrivalSpeed="12.36" duration="55.00" routeLength="576.73" waitingTime="1.00" waitingCount="1" stopTime="0.00" timeLoss="10.64" rerouteNo="0" devices="tripinfo_94" vType="DEFAULT_VEHTYPE" speedFactor="0.96" vaporized=""/>
    <tripinfo id="70" depart="349.00" departLane="right2D2_0" departPos="5.10" departSpeed="0.00" departDelay="0.00" arrival="495.00" arrivalLane="D0bottom3_0" arrivalPos="286.40" arrivalSpeed="17.21" duration="146.00" routeLength="1195.18" waitingTime="50.00" waitingCount="3" stopTime="0.00" timeLoss="78.05" rerouteNo="0" devices="tripinfo_70" vType="DEFAULT_VEHTYPE" speedFactor="1.28" vaporized=""/>
    <tripinfo id="71" depart="356.00" departLane="bottom3D0_0" departPos="5.10" departSpeed="0.00" departDelay="0.00" arrival="500.00" arrivalLane="D3right3_0" arrivalPos="286.40" arrivalSpeed="14.02" duration="144.00" routeLength="1477.24" waitingTime="21.00" waitingCount="1" stopTime="0.00" timeLoss="42.91" rerouteNo="0" devices="tripinfo_71" vType="DEFAULT_VEHTYPE" speedFactor="1.06" vaporized=""/>
    <tripinfo id="59" depart="304.00" departLane="top1B3_0" departPos="5.10" departSpeed="0.00" departDelay="0.00" arrival="509.00" arrivalLane="B3top1_0" arrivalPos="286.40" arrivalSpeed="13.93" duration="205.00" routeLength="1748.75" waitingTime="46.00" waitingCount="4" stopTime="0.00" timeLoss="79.79" rerouteNo="0" devices="tripinfo_59" vType="DEFAULT_VEHTYPE" speedFactor="1.03" vaporized=""/>
    <tripinfo id="69" depart="347.00" departLane="bottom1B0_0" departPos="5.10" departSpeed="0.00" departDelay="0.00" arrival="509.00" arrivalLane="D0right0_1" arrivalPos="286.40" arrivalSpeed="14.29" duration="162.00" routeLength="1179.77" waitingTime="63.00" waitingCount="2" stopTime="0.00" timeLoss="84.00" rerouteNo="0" devices="tripinfo_69" vType="DEFAULT_VEHTYPE" speedFactor="1.10" vaporized=""/>
    <tripinfo id="20" depart="91.00" departLane="top1B3_0" departPos="5.10" departSpeed="0.00" departDelay="0.00" arrival="514.00" arrivalLane="D0right0_0" arrivalPos="286.40" arrivalSpeed="11.29" duration="423.00" routeLength="2095.69" waitingTime="202.00" waitingCount="5" stopTime="0.00" timeLoss="240.97" rerouteNo="0" devices="tripinfo_20" vType="DEFAULT_VEHTYPE" speedFactor="0.84" vaporized=""/>
    <tripinfo id="46" depart="242.00" departLane="left2A2_0" departPos="5.10" departSpeed="0.00" departDelay="0.00" arrival="518.00" arrivalLane="D1right1_0" arrivalPos="286.40" arrivalSpeed="9.28" duration="276.00" routeLength="1782.72" waitingTime="68.00" waitingCount="3" stopTime="0.00" timeLoss="95.75" rerouteNo="0" devices="tripinfo_46" vType="DEFAULT_VEHTYPE" speedFactor="0.72" vaporized=""/>
    <tripinfo id="66" depart="333.00" departLane="top3D3_0" departPos="5.10" departSpeed="0.00" departDelay="0.00" arrival="520.00" arrivalLane="D3top3_0" arrivalPos="286.40" arrivalSpeed="13.51" duration="187.00" routeLength="1748.75" waitingTime="28.00" waitingCount="3" stopTime="0.00" timeLoss="56.57" rerouteNo="0" devices="tripinfo_66" vType="DEFAULT_VEHTYPE" speedFactor="0.99" vaporized=""/>
    <tripinfo id="87" depart="400.00" departLane="left1A1_0" departPos="5.10" departSpeed="0.00" departDelay="0.00" arrival="520.00" arrivalLane="A2left2_0" arrivalPos="286.40" arrivalSpeed="12.92" duration="120.00" routeLength="894.86" waitingTime="36.00" waitingCount="2" stopTime="0.00" timeLoss="52.77" rerouteNo="0" devices="tripinfo_87" vType="DEFAULT_VEHTYPE" speedFactor="0.97" vaporized=""/>
    <tripinfo id="88" depart="401.00" departLane="top1B3_0" departPos="5.10" departSpeed="0.00" departDelay="0.00" arrival="522.00" arrivalLane="A3left3_0" arrivalPos="286.40" arrivalSpeed="12.50" duration="121.00" routeLength="879.60" waitingTime="33.00" waitingCount="2" stopTime="0.00" timeLoss="50.75" rerouteNo="0" devices="tripinfo_88" vType="DEFAULT_VEHTYPE" speedFactor="0.92" vaporized=""/>
    <tripinfo id="91" depart="433.00" departLane="right0D0_0" departPos="5.10" departSpeed="0.00" departDelay="0.00" arrival="522.00" arrivalLane="C0bottom2_1" arrivalPos="286.40" arrivalSpeed="13.10" duration="89.00" routeLength="897.72" waitingTime="11.00" waitingCount="1" stopTime="0.00" timeLoss="22.83" rerouteNo="0" devices="tripinfo_91" vType="DEFAULT_VEHTYPE" speedFactor="0.99" vaporized=""/>
    <tripinfo id="77" depart="375.00" departLane="top2C3_0" departPos="5.10" departSpeed="0.00" departDelay="0.00" arrival="523.00" arrivalLane="A3left3_1" arrivalPos="286.40" arrivalSpeed="13.32" duration="148.00" routeLength="1179.77" waitingTime="35.00" waitingCount="3" stopTime="0.00" timeLoss="59.47" rerouteNo="0" devices="tripinfo_77" vType="DEFAULT_VEHTYPE" speedFactor="0.98" vaporized=""/>
    <tripinfo id="76" depart="374.00" departLane="right0D0_0" departPos="5.10" departSpeed="0.00" departDelay="0.00" arrival="525.00" arrivalLane="C0bottom2_0" arrivalPos="286.40" arrivalSpeed="10.93" duration="151.00" routeLength="897.72" waitingTime="57.00" waitingCount="2" stopTime="0.00" timeLoss="72.14" rerouteNo="0" devices="tripinfo_76" vType="DEFAULT_VEHTYPE" speedFactor="0.83" vaporized=""/>
    <tripinfo id="51" depart="287.00" departLane="top0A3_0" departPos="5.10" departSpeed="0.00" departDelay="0.00" arrival="534.00" arrivalLane="A0left0_0" arrivalPos="286.40" arrivalSpeed="11.77" duration="247.00" routeLength="1477.24" waitingTime="108.00" waitingCount="3" stopTime="0.00" timeLoss="130.31" rerouteNo="0" devices="tripinfo_51" vType="DEFAULT_VEHTYPE" speedFactor="0.92" vaporized=""/>
    <tripinfo id="57" depart="297.00" departLane="right1D1_0" departPos="5.10" departSpeed="0.00" departDelay="0.00" arrival="538.00" arrivalLane="C3top2_0" arrivalPos="286.40" arrivalSpeed="14.93" duration="241.00" routeLength="1479.94" waitingTime="107.00" waitingCount="3" stopTime="0.00" timeLoss="140.91" rerouteNo="0" devices="tripinfo_57" vType="DEFAULT_VEHTYPE" speedFactor="1.08" vaporized=""/>