<?xml version="1.0" encoding="UTF-8"?>

<!-- generated on 12/10/21 14:12:39 by Eclipse SUMO sumo Version 1.7.0
<configuration xmlns:xsi="http://www.w3.org/2001/XMLSchema-instance" xsi:noNamespaceSchemaLocation="http://sumo.dlr.de/xsd/sumoConfiguration.xsd">

    <input>
        <net-file value="C:\Users\longs\Desktop\RESCO-main\environments\grid4x4\grid4x4.net.xml"/>
        <route-files value="C:\Users\longs\Desktop\RESCO-main\environments\grid4x4\grid4x4_77.rou.xml"/>
    </input>

    <output>
        <tripinfo-output value="C:\Users\longs\Desktop\RESCO-main\logs\STOCHASTIC-tr1-grid4x4-0-mplight-wait\tripinfo_77.xml"/>
        <tripinfo-output.write-unfinished value="true"/>
    </output>

    <processing>
        <time-to-teleport value="-1"/>
    </processing>

    <report>
        <no-warnings value="true"/>
        <no-step-log value="true"/>
    </report>

    <traci_server>
        <remote-port value="59850"/>
    </traci_server>

    <random_number>
        <random value="true"/>
    </random_number>

</configuration>
-->

<tripinfos xmlns:xsi="http://www.w3.org/2001/XMLSchema-instance" xsi:noNamespaceSchemaLocation="http://sumo.dlr.de/xsd/tripinfo_file.xsd">
    <tripinfo id="0" depart="0.00" departLane="top0A3_0" departPos="5.10" departSpeed="0.00" departDelay="0.00" arrival="105.00" arrivalLane="A2left2_0" arrivalPos="286.40" arrivalSpeed="13.36" duration="105.00" routeLength="876.90" waitingTime="27.00" waitingCount="2" stopTime="0.00" timeLoss="42.70" rerouteNo="0" devices="tripinfo_0" vType="DEFAULT_VEHTYPE" speedFactor="1.04" vaporized=""/>
    <tripinfo id="6" depart="33.00" departLane="bottom0A0_0" departPos="5.10" departSpeed="0.00" departDelay="0.00" arrival="142.00" arrivalLane="A1left1_0" arrivalPos="286.40" arrivalSpeed="12.27" duration="109.00" routeLength="897.72" waitingTime="20.00" waitingCount="2" stopTime="0.00" timeLoss="34.81" rerouteNo="0" devices="tripinfo_6" vType="DEFAULT_VEHTYPE" speedFactor="0.88" vaporized=""/>
    <tripinfo id="19" depart="65.00" departLane="bottom0A0_0" departPos="5.10" departSpeed="0.00" departDelay="0.00" arrival="148.00" arrivalLane="B0bottom1_0" arrivalPos="286.40" arrivalSpeed="12.34" duration="83.00" routeLength="858.56" waitingTime="2.00" waitingCount="2" stopTime="0.00" timeLoss="18.90" rerouteNo="0" devices="tripinfo_19" vType="DEFAULT_VEHTYPE" speedFactor="0.98" vaporized=""/>
    <tripinfo id="7" depart="36.00" departLane="right2D2_0" departPos="5.10" departSpeed="0.00" departDelay="0.00" arrival="173.00" arrivalLane="D0right0_0" arrivalPos="286.40" arrivalSpeed="13.50" duration="137.00" routeLength="1197.66" waitingTime="37.00" waitingCount="1" stopTime="0.00" timeLoss="50.06" rerouteNo="0" devices="tripinfo_7" vType="DEFAULT_VEHTYPE" speedFactor="1.01" vaporized=""/>
    <tripinfo id="5" depart="29.00" departLane="left3A3_0" departPos="5.10" departSpeed="0.00" departDelay="0.00" arrival="192.00" arrivalLane="C3top2_0" arrivalPos="286.40" arrivalSpeed="12.24" duration="163.00" routeLength="1197.89" waitingTime="47.00" waitingCount="3" stopTime="0.00" timeLoss="67.56" rerouteNo="0" devices="tripinfo_5" vType="DEFAULT_VEHTYPE" speedFactor="0.91" vaporized=""/>
    <tripinfo id="4" depart="25.00" departLane="top2C3_0" departPos="5.10" departSpeed="0.00" departDelay="0.00" arrival="211.00" arrivalLane="D3right3_0" arrivalPos="286.40" arrivalSpeed="11.41" duration="186.00" routeLength="895.01" waitingTime="99.00" waitingCount="1" stopTime="0.00" timeLoss="113.09" rerouteNo="0" devices="tripinfo_4" vType="DEFAULT_VEHTYPE" speedFactor="0.90" vaporized=""/>
    <tripinfo id="29" depart="146.00" departLane="top1B3_0" departPos="5.10" departSpeed="0.00" departDelay="0.00" arrival="214.00" arrivalLane="A3top0_0" arrivalPos="286.40" arrivalSpeed="14.86" duration="68.00" routeLength="858.56" waitingTime="0.00" waitingCount="0" stopTime="0.00" timeLoss="9.47" rerouteNo="0" devices="tripinfo_29" vType="DEFAULT_VEHTYPE" speedFactor="1.09" vaporized=""/>
    <tripinfo id="12" depart="52.00" departLane="top1B3_0" departPos="5.10" departSpeed="0.00" departDelay="0.00" arrival="229.00" arrivalLane="B3top1_0" arrivalPos="286.40" arrivalSpeed="13.57" duration="177.00" routeLength="1748.75" waitingTime="19.00" waitingCount="4" stopTime="0.00" timeLoss="47.48" rerouteNo="0" devices="tripinfo_12" vType="DEFAULT_VEHTYPE" speedFactor="0.99" vaporized=""/>
    <tripinfo id="26" depart="129.00" departLane="bottom1B0_0" departPos="5.10" departSpeed="0.00" departDelay="0.00" arrival="231.00" arrivalLane="A0bottom0_0" arrivalPos="286.40" arrivalSpeed="14.50" duration="102.00" routeLength="894.86" waitingTime="27.00" waitingCount="1" stopTime="0.00" timeLoss="39.02" rerouteNo="0" devices="tripinfo_26" vType="DEFAULT_VEHTYPE" speedFactor="1.05" vaporized=""/>
    <tripinfo id="16" depart="61.00" departLane="bottom1B0_0" departPos="5.10" departSpeed="0.00" departDelay="0.00" arrival="232.00" arrivalLane="A0left0_0" arrivalPos="286.40" arrivalSpeed="11.49" duration="171.00" routeLength="895.01" waitingTime="81.00" waitingCount="2" stopTime="0.00" timeLoss="96.15" rerouteNo="0" devices="tripinfo_16" vType="DEFAULT_VEHTYPE" speedFactor="0.87" vaporized=""/>
    <tripinfo id="21" depart="82.00" departLane="bottom1B0_0" departPos="5.10" departSpeed="0.00" departDelay="0.00" arrival="241.00" arrivalLane="D0bottom3_0" arrivalPos="286.40" arrivalSpeed="13.29" duration="159.00" routeLength="1161.43" waitingTime="58.00" waitingCount="2" stopTime="0.00" timeLoss="75.46" rerouteNo="0" devices="tripinfo_21" vType="DEFAULT_VEHTYPE" speedFactor="1.02" vaporized=""/>
    <tripinfo id="11" depart="50.00" departLane="left2A2_0" departPos="5.10" departSpeed="0.00" departDelay="0.00" arrival="243.00" arrivalLane="A0left0_0" arrivalPos="286.40" arrivalSpeed="11.51" duration="193.00" routeLength="1161.43" waitingTime="77.00" waitingCount="2" stopTime="0.00" timeLoss="97.08" rerouteNo="0" devices="tripinfo_11" vType="DEFAULT_VEHTYPE" speedFactor="0.89" vaporized=""/>
    <tripinfo id="23" depart="95.00" departLane="top3D3_0" departPos="5.10" departSpeed="0.00" departDelay="0.00" arrival="248.00" arrivalLane="D3top3_0" arrivalPos="286.40" arrivalSpeed="13.83" duration="153.00" routeLength="1748.75" waitingTime="5.00" waitingCount="3" stopTime="0.00" timeLoss="33.61" rerouteNo="0" devices="tripinfo_23" vType="DEFAULT_VEHTYPE" speedFactor="1.08" vaporized=""/>
    <tripinfo id="15" depart="60.00" departLane="right0D0_0" departPos="5.10" departSpeed="0.00" departDelay="0.00" arrival="269.00" arrivalLane="D0right0_0" arrivalPos="286.40" arrivalSpeed="13.47" duration="209.00" routeLength="1748.75" waitingTime="46.00" waitingCount="5" stopTime="0.00" timeLoss="83.40" rerouteNo="0" devices="tripinfo_15" vType="DEFAULT_VEHTYPE" speedFactor="1.02" vaporized=""/>
    <tripinfo id="25" depart="122.00" departLane="top0A3_0" departPos="5.10" departSpeed="0.00" departDelay="0.00" arrival="275.00" arrivalLane="A1left1_0" arrivalPos="286.40" arrivalSpeed="14.49" duration="153.00" routeLength="1177.07" waitingTime="54.00" waitingCount="2" stopTime="0.00" timeLoss="71.45" rerouteNo="0" devices="tripinfo_25" vType="DEFAULT_VEHTYPE" speedFactor="1.05" vaporized=""/>
    <tripinfo id="13" depart="59.00" departLane="right3D3_0" departPos="5.10" departSpeed="0.00" departDelay="0.00" arrival="276.00" arrivalLane="D3right3_0" arrivalPos="286.40" arrivalSpeed="15.80" duration="217.00" routeLength="1745.91" waitingTime="72.00" waitingCount="4" stopTime="0.00" timeLoss="105.22" rerouteNo="0" devices="tripinfo_13" vType="DEFAULT_VEHTYPE" speedFactor="1.15" vaporized=""/>
    <tripinfo id="18" depart="64.00" departLane="bottom1B0_0" departPos="5.10" departSpeed="0.00" departDelay="0.00" arrival="286.00" arrivalLane="D1right1_0" arrivalPos="286.40" arrivalSpeed="15.49" duration="222.00" routeLength="1479.94" waitingTime="103.00" waitingCount="3" stopTime="0.00" timeLoss="126.76" rerouteNo="0" devices="tripinfo_18" vType="DEFAULT_VEHTYPE" speedFactor="1.13" vaporized=""/>
    <tripinfo id="30" depart="150.00" departLane="right1D1_0" departPos="5.10" departSpeed="0.00" departDelay="0.00" arrival="286.00" arrivalLane="D3right3_0" arrivalPos="286.40" arrivalSpeed="13.05" duration="136.00" routeLength="1161.43" waitingTime="30.00" waitingCount="3" stopTime="0.00" timeLoss="51.53" rerouteNo="0" devices="tripinfo_30" vType="DEFAULT_VEHTYPE" speedFactor="1.01" vaporized=""/>
    <tripinfo id="17" depart="62.00" departLane="left2A2_0" departPos="5.10" departSpeed="0.00" departDelay="0.00" arrival="290.00" arrivalLane="A2left2_0" arrivalPos="286.40" arrivalSpeed="12.71" duration="228.00" routeLength="1748.75" waitingTime="60.00" waitingCount="5" stopTime="0.00" timeLoss="94.88" rerouteNo="0" devices="tripinfo_17" vType="DEFAULT_VEHTYPE" speedFactor="0.96" vaporized=""/>
    <tripinfo id="2" depart="12.00" departLane="left0A0_0" departPos="5.10" departSpeed="0.00" departDelay="0.00" arrival="292.00" arrivalLane="A3left3_0" arrivalPos="286.40" arrivalSpeed="11.42" duration="280.00" routeLength="1497.83" waitingTime="140.00" waitingCount="3" stopTime="0.00" timeLoss="160.00" rerouteNo="0" devices="tripinfo_2" vType="DEFAULT_VEHTYPE" speedFactor="0.91" vaporized=""/>
    <tripinfo id="3" depart="17.00" departLane="top1B3_0" departPos="5.10" departSpeed="0.00" departDelay="0.00" arrival="298.00" arrivalLane="C0bottom2_0" arrivalPos="286.40" arrivalSpeed="13.61" duration="281.00" routeLength="1782.59" waitingTime="130.00" waitingCount="4" stopTime="0.00" timeLoss="159.85" rerouteNo="0" devices="tripinfo_3" vType="DEFAULT_VEHTYPE" speedFactor="1.07" vaporized=""/>
    <tripinfo id="14" depart="60.00" departLane="left0A0_0" departPos="5.10" departSpeed="0.00" departDelay="0.00" arrival="301.00" arrivalLane="D3right3_0" arrivalPos="286.40" arrivalSpeed="14.02" duration="241.00" routeLength="2380.22" waitingTime="42.00" waitingCount="4" stopTime="0.00" timeLoss="69.88" rerouteNo="0" devices="tripinfo_14" vType="DEFAULT_VEHTYPE" speedFactor="1.01" vaporized=""/>
    <tripinfo id="34" depart="166.00" departLane="left1A1_0" departPos="5.10" departSpeed="0.00" departDelay="0.00" arrival="307.00" arrivalLane="A0bottom0_0" arrivalPos="286.40" arrivalSpeed="15.26" duration="141.00" routeLength="879.60" waitingTime="65.00" waitingCount="2" stopTime="0.00" timeLoss="82.52" rerouteNo="0" devices="tripinfo_34" vType="DEFAULT_VEHTYPE" speedFactor="1.10" vaporized=""/>
    <tripinfo id="48" depart="225.00" departLane="bottom2C0_0" departPos="5.10" departSpeed="0.00" departDelay="0.00" arrival="330.00" arrivalLane="D1right1_0" arrivalPos="286.40" arrivalSpeed="13.34" duration="105.00" routeLength="1179.77" waitingTime="3.00" waitingCount="1" stopTime="0.00" timeLoss="18.54" rerouteNo="0" devices="tripinfo_48" vType="DEFAULT_VEHTYPE" speedFactor="1.00" vaporized=""/>
    <tripinfo id="22" depart="91.00" departLane="bottom2C0_0" departPos="5.10" departSpeed="0.00" departDelay="0.00" arrival="338.00" arrivalLane="D3right3_0" arrivalPos="286.40" arrivalSpeed="13.53" duration="247.00" routeLength="1780.11" waitingTime="93.00" waitingCount="4" stopTime="0.00" timeLoss="122.49" rerouteNo="0" devices="tripinfo_22" vType="DEFAULT_VEHTYPE" speedFactor="1.04" vaporized=""/>
    <tripinfo id="33" depart="164.00" departLane="top3D3_0" departPos="5.10" departSpeed="0.00" departDelay="0.00" arrival="338.00" arrivalLane="A2left2_1" arrivalPos="286.40" arrivalSpeed="13.03" duration="174.00" routeLength="1780.11" waitingTime="6.00" waitingCount="2" stopTime="0.00" timeLoss="41.23" rerouteNo="0" devices="tripinfo_33" vType="DEFAULT_VEHTYPE" speedFactor="0.97" vaporized=""/>
    <tripinfo id="24" depart="101.00" departLane="top3D3_0" departPos="5.10" departSpeed="0.00" departDelay="0.00" arrival="339.00" arrivalLane="A2left2_0" arrivalPos="286.40" arrivalSpeed="11.76" duration="238.00" routeLength="1780.11" waitingTime="64.00" waitingCount="3" stopTime="0.00" timeLoss="88.13" rerouteNo="0" devices="tripinfo_24" vType="DEFAULT_VEHTYPE" speedFactor="0.86" vaporized=""/>
    <tripinfo id="32" depart="159.00" departLane="top1B3_0" departPos="5.10" departSpeed="0.00" departDelay="0.00" arrival="341.00" arrivalLane="B3top1_0" arrivalPos="286.40" arrivalSpeed="12.13" duration="182.00" routeLength="1748.75" waitingTime="18.00" waitingCount="4" stopTime="0.00" timeLoss="45.39" rerouteNo="0" devices="tripinfo_32" vType="DEFAULT_VEHTYPE" speedFactor="0.94" vaporized=""/>
    <tripinfo id="38" depart="192.00" departLane="top2C3_0" departPos="5.10" departSpeed="0.00" departDelay="0.00" arrival="341.00" arrivalLane="A2left2_0" arrivalPos="286.40" arrivalSpeed="13.49" duration="149.00" routeLength="1479.94" waitingTime="17.00" waitingCount="2" stopTime="0.00" timeLoss="53.17" rerouteNo="0" devices="tripinfo_38" vType="DEFAULT_VEHTYPE" speedFactor="1.12" vaporized=""/>
    <tripinfo id="39" depart="199.00" departLane="top2C3_0" departPos="5.10" departSpeed="0.00" departDelay="0.00" arrival="341.00" arrivalLane="A2left2_1" arrivalPos="286.40" arrivalSpeed="12.95" duration="142.00" routeLength="1479.94" waitingTime="9.00" waitingCount="2" stopTime="0.00" timeLoss="35.73" rerouteNo="0" devices="tripinfo_39" vType="DEFAULT_VEHTYPE" speedFactor="1.01" vaporized=""/>
    <tripinfo id="20" depart="79.00" departLane="left2A2_0" departPos="5.10" departSpeed="0.00" departDelay="0.00" arrival="350.00" arrivalLane="D3top3_0" arrivalPos="286.40" arrivalSpeed="12.20" duration="271.00" routeLength="1795.52" waitingTime="105.00" waitingCount="3" stopTime="0.00" timeLoss="133.22" rerouteNo="0" devices="tripinfo_20" vType="DEFAULT_VEHTYPE" speedFactor="0.94" vaporized=""/>
    <tripinfo id="8" depart="38.00" departLane="top0A3_0" departPos="5.10" departSpeed="0.00" departDelay="0.00" arrival="351.00" arrivalLane="B0bottom1_0" arrivalPos="286.40" arrivalSpeed="12.77" duration="313.00" routeLength="1782.59" waitingTime="151.00" waitingCount="3" stopTime="0.00" timeLoss="173.39" rerouteNo="0" devices="tripinfo_8" vType="DEFAULT_VEHTYPE" speedFactor="0.93" vaporized=""/>
    <tripinfo id="59" depart="277.00" departLane="top3D3_0" departPos="5.10" departSpeed="0.00" departDelay="0.00" arrival="366.00" arrivalLane="D1right1_0" arrivalPos="286.40" arrivalSpeed="15.53" duration="89.00" routeLength="1197.89" waitingTime="1.00" waitingCount="1" stopTime="0.00" timeLoss="13.34" rerouteNo="0" devices="tripinfo_59" vType="DEFAULT_VEHTYPE" speedFactor="1.15" vaporized=""/>
    <tripinfo id="62" depart="282.00" departLane="right2D2_0" departPos="5.10" departSpeed="0.00" departDelay="0.00" arrival="368.00" arrivalLane="D3right3_0" arrivalPos="286.40" arrivalSpeed="12.22" duration="86.00" routeLength="858.56" waitingTime="2.00" waitingCount="2" stopTime="0.00" timeLoss="16.87" rerouteNo="0" devices="tripinfo_62" vType="DEFAULT_VEHTYPE" speedFactor="0.91" vaporized=""/>
    <tripinfo id="41" depart="200.00" departLane="bottom3D0_0" departPos="5.10" departSpeed="0.00" departDelay="0.00" arrival="371.00" arrivalLane="C0bottom2_0" arrivalPos="286.40" arrivalSpeed="11.98" duration="171.00" routeLength="894.86" waitingTime="85.00" waitingCount="2" stopTime="0.00" timeLoss="101.40" rerouteNo="0" devices="tripinfo_41" vType="DEFAULT_VEHTYPE" speedFactor="0.94" vaporized=""/>
    <tripinfo id="31" depart="153.00" departLane="bottom2C0_0" departPos="5.10" departSpeed="0.00" departDelay="0.00" arrival="372.00" arrivalLane="C0bottom2_1" arrivalPos="286.40" arrivalSpeed="13.04" duration="219.00" routeLength="1748.75" waitingTime="56.00" waitingCount="5" stopTime="0.00" timeLoss="90.70" rerouteNo="0" devices="tripinfo_31" vType="DEFAULT_VEHTYPE" speedFactor="1.00" vaporized=""/>
    <tripinfo id="36" depart="186.00" departLane="bottom0A0_0" departPos="5.10" departSpeed="0.00" departDelay="0.00" arrival="372.00" arrivalLane="A3left3_0" arrivalPos="286.40" arrivalSpeed="12.34" duration="186.00" routeLength="1498.06" waitingTime="39.00" waitingCount="3" stopTime="0.00" timeLoss="64.36" rerouteNo="0" devices="tripinfo_36" vType="DEFAULT_VEHTYPE" speedFactor="0.89" vaporized=""/>
    <tripinfo id="27" depart="140.00" departLane="right2D2_0" departPos="5.10" departSpeed="0.00" departDelay="0.00" arrival="381.00" arrivalLane="B3top1_0" arrivalPos="286.40" arrivalSpeed="12.76" duration="241.00" routeLength="1479.94" waitingTime="96.00" waitingCount="3" stopTime="0.00" timeLoss="123.82" rerouteNo="0" devices="tripinfo_27" vType="DEFAULT_VEHTYPE" speedFactor="0.92" vaporized=""/>
    <tripinfo id="42" depart="202.00" departLane="top0A3_0" departPos="5.10" departSpeed="0.00" departDelay="0.00" arrival="390.00" arrivalLane="D3top3_0" arrivalPos="286.40" arrivalSpeed="14.89" duration="188.00" routeLength="1497.83" waitingTime="69.00" waitingCount="2" stopTime="0.00" timeLoss="86.86" rerouteNo="0" devices="tripinfo_42" vType="DEFAULT_VEHTYPE" speedFactor="1.08" vaporized=""/>
    <tripinfo id="80" depart="345.00" departLane="left0A0_0" departPos="5.10" departSpeed="0.00" departDelay="0.00" arrival="395.00" arrivalLane="A0bottom0_0" arrivalPos="286.40" arrivalSpeed="15.31" duration="50.00" routeLength="576.73" waitingTime="1.00" waitingCount="1" stopTime="0.00" timeLoss="12.06" rerouteNo="0" devices="tripinfo_80" vType="DEFAULT_VEHTYPE" speedFactor="1.13" vaporized=""/>
    <tripinfo id="73" depart="323.00" departLane="right2D2_0" departPos="5.10" departSpeed="0.00" departDelay="0.00" arrival="399.00" arrivalLane="D3right3_0" arrivalPos="286.40" arrivalSpeed="12.98" duration="76.00" routeLength="858.56" waitingTime="1.00" waitingCount="1" stopTime="0.00" timeLoss="13.51" rerouteNo="0" devices="tripinfo_73" vType="DEFAULT_VEHTYPE" speedFactor="1.02" vaporized=""/>
    <tripinfo id="28" depart="144.00" departLane="left0A0_0" departPos="5.10" departSpeed="0.00" departDelay="0.00" arrival="401.00" arrivalLane="A3top0_0" arrivalPos="286.40" arrivalSpeed="12.35" duration="257.00" routeLength="1495.35" waitingTime="108.00" waitingCount="4" stopTime="0.00" timeLoss="136.51" rerouteNo="0" devices="tripinfo_28" vType="DEFAULT_VEHTYPE" speedFactor="0.90" vaporized=""/>
    <tripinfo id="71" depart="321.00" departLane="right0D0_0" departPos="5.10" departSpeed="0.00" departDelay="0.00" arrival="404.00" arrivalLane="D1right1_0" arrivalPos="286.40" arrivalSpeed="11.68" duration="83.00" routeLength="858.56" waitingTime="1.00" waitingCount="1" stopTime="0.00" timeLoss="14.75" rerouteNo="0" devices="tripinfo_71" vType="DEFAULT_VEHTYPE" speedFactor="0.93" vaporized=""/>
    <tripinfo id="35" depart="183.00" departLane="bottom3D0_0" departPos="5.10" departSpeed="0.00" departDelay="0.00" arrival="410.00" arrivalLane="D3right3_0" arrivalPos="286.40" arrivalSpeed="14.47" duration="227.00" routeLength="1477.24" waitingTime="105.00" waitingCount="2" stopTime="0.00" timeLoss="125.60" rerouteNo="0" devices="tripinfo_35" vType="DEFAULT_VEHTYPE" speedFactor="1.05" vaporized=""/>
    <tripinfo id="10" depart="47.00" departLane="right3D3_0" departPos="5.10" departSpeed="0.00" departDelay="0.00" arrival="419.00" arrivalLane="C0bottom2_0" arrivalPos="286.40" arrivalSpeed="13.66" duration="372.00" routeLength="1795.52" waitingTime="216.00" waitingCount="4" stopTime="0.00" timeLoss="243.54" rerouteNo="0" devices="tripinfo_10" vType="DEFAULT_VEHTYPE" speedFactor="1.01" vaporized=""/>
    <tripinfo id="74" depart="325.00" departLane="top2C3_0" departPos="5.10" departSpeed="0.00" departDelay="0.00" arrival="420.00" arrivalLane="D3right3_0" arrivalPos="286.40" arrivalSpeed="11.78" duration="95.00" routeLength="895.01" waitingTime="10.00" waitingCount="1" stopTime="0.00" timeLoss="25.41" rerouteNo="0" devices="tripinfo_74" vType="DEFAULT_VEHTYPE" speedFactor="0.94" vaporized=""/>
    <tripinfo id="9" depart="42.00" departLane="right0D0_0" departPos="5.10" departSpeed="0.00" departDelay="0.00" arrival="424.00" arrivalLane="A3left3_0" arrivalPos="286.40" arrivalSpeed="12.69" duration="382.00" routeLength="2382.93" waitingTime="168.00" waitingCount="5" stopTime="0.00" timeLoss="204.05" rerouteNo="0" devices="tripinfo_9" vType="DEFAULT_VEHTYPE" speedFactor="0.97" vaporized=""/>
    <tripinfo id="49" depart="230.00" departLane="top2C3_0" departPos="5.10" departSpeed="0.00" departDelay="0.00" arrival="425.00" arrivalLane="D0bottom3_0" arrivalPos="286.40" arrivalSpeed="15.44" duration="195.00" routeLength="1782.59" waitingTime="47.00" waitingCount="5" stopTime="0.00" timeLoss="85.00" rerouteNo="0" devices="tripinfo_49" vType="DEFAULT_VEHTYPE" speedFactor="1.18" vaporized=""/>
    <tripinfo id="82" depart="350.00" departLane="left3A3_0" departPos="5.10" departSpeed="0.00" departDelay="0.00" arrival="425.00" arrivalLane="A2left2_0" arrivalPos="286.40" arrivalSpeed="15.29" duration="75.00" routeLength="858.56" waitingTime="2.00" waitingCount="2" stopTime="0.00" timeLoss="19.45" rerouteNo="0" devices="tripinfo_82" vType="DEFAULT_VEHTYPE" speedFactor="1.14" vaporized=""/>
    <tripinfo id="75" depart="327.00" departLane="bottom3D0_0" departPos="5.10" departSpeed="0.00" departDelay="0.00" arrival="431.00" arrivalLane="B0bottom1_0" arrivalPos="286.40" arrivalSpeed="13.79" duration="104.00" routeLength="1197.66" waitingTime="6.00" waitingCount="1" stopTime="0.00" timeLoss="18.48" rerouteNo="0" devices="tripinfo_75" vType="DEFAULT_VEHTYPE" speedFactor="1.02" vaporized=""/>
    <tripinfo id="51" depart="237.00" departLane="bottom2C0_0" departPos="5.10" departSpeed="0.00" departDelay="0.00" arrival="452.00" arrivalLane="C3top2_0" arrivalPos="286.40" arrivalSpeed="11.07" duration="215.00" routeLength="1495.58" waitingTime="65.00" waitingCount="3" stopTime="0.00" timeLoss="90.96" rerouteNo="0" devices="tripinfo_51" vType="DEFAULT_VEHTYPE" speedFactor="0.87" vaporized=""/>
    <tripinfo id="47" depart="223.00" departLane="top0A3_0" departPos="5.10" departSpeed="0.00" departDelay="0.00" arrival="455.00" arrivalLane="D3top3_0" arrivalPos="286.40" arrivalSpeed="10.43" duration="232.00" routeLength="1497.83" waitingTime="78.00" waitingCount="2" stopTime="0.00" timeLoss="95.94" rerouteNo="0" devices="tripinfo_47" vType="DEFAULT_VEHTYPE" speedFactor="0.80" vaporized=""/>
    <tripinfo id="46" depart="213.00" departLane="left1A1_0" departPos="5.10" departSpeed="0.00" departDelay="0.00" arrival="458.00" arrivalLane="D2right2_0" arrivalPos="286.40" arrivalSpeed="13.22" duration="245.00" routeLength="1782.59" waitingTime="87.00" waitingCount="4" stopTime="0.00" timeLoss="117.29" rerouteNo="0" devices="tripinfo_46" vType="DEFAULT_VEHTYPE" speedFactor="1.01" vaporized=""/>
    <tripinfo id="68" depart="303.00" departLane="top3D3_0" departPos="5.10" departSpeed="0.00" departDelay="0.00" arrival="481.00" arrivalLane="A3left3_0" arrivalPos="286.40" arrivalSpeed="12.54" duration="178.00" routeLength="1479.94" waitingTime="40.00" waitingCount="2" stopTime="0.00" timeLoss="58.78" rerouteNo="0" devices="tripinfo_68" vType="DEFAULT_VEHTYPE" speedFactor="0.90" vaporized=""/>
    <tripinfo id="57" depart="272.00" departLane="bottom1B0_0" departPos="5.10" departSpeed="0.00" departDelay="0.00" arrival="482.00" arrivalLane="C3top2_0" arrivalPos="286.40" arrivalSpeed="11.70" duration="210.00" routeLength="1782.72" waitingTime="43.00" waitingCount="3" stopTime="0.00" timeLoss="65.01" rerouteNo="0" devices="tripinfo_57" vType="DEFAULT_VEHTYPE" speedFactor="0.90" vaporized=""/>
    <tripinfo id="72" depart="321.00" departLane="bottom1B0_0" departPos="5.10" departSpeed="0.00" departDelay="0.00" arrival="497.00" arrivalLane="B0bottom1_0" arrivalPos="286.40" arrivalSpeed="15.15" duration="176.00" routeLength="1748.75" waitingTime="31.00" waitingCount="3" stopTime="0.00" timeLoss="60.16" rerouteNo="0" devices="tripinfo_72" vType="DEFAULT_VEHTYPE" speedFactor="1.11" vaporized=""/>
    <tripinfo id="76" depart="327.00" departLane="bottom0A0_0" departPos="5.10" departSpeed="0.00" departDelay="0.00" arrival="509.00" arrivalLane="A2left2_0" arrivalPos="286.40" arrivalSpeed="14.03" duration="182.00" routeLength="1197.89" waitingTime="73.00" waitingCount="3" stopTime="0.00" timeLoss="96.98" rerouteNo="0" devices="tripinfo_76" vType="DEFAULT_VEHTYPE" speedFactor="1.02" vaporized=""/>
    <tripinfo id="87" depart="359.00" departLane="right3D3_0" departPos="5.10" departSpeed="0.00" departDelay="0.00" arrival="512.00" arrivalLane="A3left3_0" arrivalPos="286.40" arrivalSpeed="11.88" duration="153.00" routeLength="1495.58" waitingTime="12.00" waitingCount="3" stopTime="0.00" timeLoss="33.70" rerouteNo="0" devices="tripinfo_87" vType="DEFAULT_VEHTYPE" speedFactor="0.91" vaporized=""/>
    <tripinfo id="104" depart="434.00" departLane="right1D1_0" departPos="5.10" departSpeed="0.00" departDelay="0.00" arrival="518.00" arrivalLane="D2right2_0" arrivalPos="286.40" arrivalSpeed="12.15" duration="84.00" routeLength="858.56" waitingTime="2.00" waitingCount="2" stopTime="0.00" timeLoss="16.94" rerouteNo="0" devices="tripinfo_104" vType="DEFAULT_VEHTYPE" speedFactor="0.94" vaporized=""/>
    <tripinfo id="63" depart="287.00" departLane="bottom2C0_0" departPos="5.10" departSpeed="0.00" departDelay="0.00" arrival="519.00" arrivalLane="D3right3_0" arrivalPos="286.40" arrivalSpeed="13.66" duration="232.00" routeLength="1780.11" waitingTime="69.00" waitingCount="5" stopTime="0.00" timeLoss="104.76" rerouteNo="0" devices="tripinfo_63" vType="DEFAULT_VEHTYPE" speedFactor="1.02" vaporized=""/>
    <tripinfo id="61" depart="278.00" departLane="bottom3D0_0" departPos="5.10" departSpeed="0.00" departDelay="0.00" arrival="520.00" arrivalLane="A2left2_0" arrivalPos="286.40" arrivalSpeed="13.22" duration="242.00" routeLength="2095.69" waitingTime="53.00" waitingCount="4" stopTime="0.00" timeLoss="84.25" rerouteNo="0" devices="tripinfo_61" vType="DEFAULT_VEHTYPE" speedFactor="0.96" vaporized=""/>
    <tripinfo id="67" depart="296.00" departLane="right2D2_0" departPos="5.10" departSpeed="0.00" departDelay="0.00" arrival="520.00" arrivalLane="A3top0_1" arrivalPos="286.40" arrivalSpeed="13.95" duration="224.00" routeLength="1780.11" waitingTime="70.00" waitingCount="5" stopTime="0.00" timeLoss="105.13" rerouteNo="0" devices="tripinfo_67" vType="DEFAULT_VEHTYPE" speedFactor="1.09" vaporized=""/>
    <tripinfo id="45" depart="212.00" departLane="bottom1B0_0" departPos="5.10" departSpeed="0.00" departDelay="0.00" arrival="522.00" arrivalLane="A3top0_0" arrivalPos="286.40" arrivalSpeed="11.48" duration="310.00" routeLength="1782.59" waitingTime="132.00" waitingCount="4" stopTime="0.00" timeLoss="164.40" rerouteNo="0" devices="tripinfo_45" vType="DEFAULT_VEHTYPE" speedFactor="0.89" vaporized=""/>
    <tripinfo id="88" depart="366.00" departLane="top1B3_0" departPos="5.10" departSpeed="0.00" departDelay="0.00" arrival="524.00" arrivalLane="D3right3_0" arrivalPos="286.40" arrivalSpeed="13.35" duration="158.00" routeLength="1195.18" waitingTime="56.00" waitingCount="2" stopTime="0.00" timeLoss="74.03" rerouteNo="0" devices="tripinfo_88" vType="DEFAULT_VEHTYPE" speedFactor="1.04" vaporized=""/>
    <tripinfo id="83" depart="353.00" departLane="left3A3_0" departPos="5.10" departSpeed="0.00" departDelay="1.00" arrival="528.00" arrivalLane="A3left3_0" arrivalPos="286.40" arrivalSpeed="13.89" duration="175.00" routeLength="1748.75" waitingTime="24.00" waitingCount="4" stopTime="0.00" timeLoss="53.70" rerouteNo="0" devices="tripinfo_83" vType="DEFAULT_VEHTYPE" speedFactor="1.06" vaporized=""/>
    <tripinfo id="69" depart="307.00" departLane="bottom0A0_0" departPos="5.10" departSpeed="0.00" departDelay="0.00" arrival="535.00" arrivalLane="D0bottom3_0" arrivalPos="286.40" arrivalSpeed="11.65" duration="228.00" routeLength="1461.60" waitingTime="82.00" waitingCount="3" stopTime="0.00" timeLoss="106.22" rerouteNo="0" devices="tripinfo_69" vType="DEFAULT_VEHTYPE" speedFactor="0.88" vaporized=""/>
    <tripinfo id="40" depart="199.00" departLane="bottom1B0_0" departPos="5.10" departSpeed="0.00" departDelay="0.00" arrival="537.00" arrivalLane="D2right2_0" arrivalPos="286.40" arrivalSpeed="14.38" duration="338.00" routeLength="1780.11" waitingTime="188.00" waitingCount="4" stopTime="0.00" timeLoss="221.43" rerouteNo="0" devices="tripinfo_40" vType="DEFAULT_VEHTYPE" speedFactor="1.12" vaporized=""/>
    <tripinfo id="65" depart="292.00" departLane="left3A3_0" departPos="5.10" departSpeed="0.00" departDelay="0.00" arrival="539.00" arrivalLane="D2right2_0" arrivalPos="286.40" arrivalSpeed="15.26" duration="247.00" routeLength="1782.72" waitingTime="91.00" waitingCount="5" stopTime="0.00" timeLoss="129.05" rerouteNo="0" devices="tripinfo_65" vType="DEFAULT_VEHTYPE" speedFactor="1.10" vaporized=""/>
    <tripinfo id="64" depart="291.00" departLane="left0A0_0" departPos="5.10" departSpeed="0.00" departDelay="0.00" arrival="543.00" arrivalLane="D2right2_0" arrivalPos="286.40" arrivalSpeed="14.13" duration="252.00" routeLength="2080.05" waitingTime="62.00" waitingCount="5" stopTime="0.00" timeLoss="103.86" rerouteNo="0" devices="tripinfo_64" vType="DEFAULT_VEHTYPE" speedFactor="1.02" vaporized=""/>
    <tripinfo id="1" depart="11.00" departLane="top0A3_0" departPos="5.10" departSpeed="0.00" departDelay="0.00" arrival="548.00" arrivalLane="D0right0_0" arrivalPos="286.40" arrivalSpeed="14.07" duration="537.00" routeLength="2395.86" waitingTime="320.00" waitingCount="7" stopTime="0.00" timeLoss="371.21" rerouteNo="0" devices="tripinfo_1" vType="DEFAULT_VEHTYPE" speedFactor="1.05" vaporized=""/>
    <tripinfo id="60" depart="278.00" departLane="left0A0_0" departPos="5.10" departSpeed="0.00" departDelay="0.00" arrival="548.00" arrivalLane="C3top2_0" arrivalPos="286.40" arrivalSpeed="15.15" duration="270.00" routeLength="2095.69" waitingTime="102.00" waitingCount="4" stopTime="0.00" timeLoss="133.62" rerouteNo="0" devices="tripinfo_60" vType="DEFAULT_VEHTYPE" speedFactor="1.12" vaporized=""/>