<?xml version="1.0" encoding="UTF-8"?>

<!-- generated on 12/10/21 13:48:35 by Eclipse SUMO sumo Version 1.7.0
<configuration xmlns:xsi="http://www.w3.org/2001/XMLSchema-instance" xsi:noNamespaceSchemaLocation="http://sumo.dlr.de/xsd/sumoConfiguration.xsd">

    <input>
        <net-file value="C:\Users\longs\Desktop\RESCO-main\environments\grid4x4\grid4x4.net.xml"/>
        <route-files value="C:\Users\longs\Desktop\RESCO-main\environments\grid4x4\grid4x4_4.rou.xml"/>
    </input>

    <output>
        <tripinfo-output value="C:\Users\longs\Desktop\RESCO-main\logs\STOCHASTIC-tr1-grid4x4-0-mplight-wait\tripinfo_4.xml"/>
        <tripinfo-output.write-unfinished value="true"/>
    </output>

    <processing>
        <time-to-teleport value="-1"/>
    </processing>

    <report>
        <no-warnings value="true"/>
        <no-step-log value="true"/>
    </report>

    <traci_server>
        <remote-port value="58815"/>
    </traci_server>

    <random_number>
        <random value="true"/>
    </random_number>

</configuration>
-->

<tripinfos xmlns:xsi="http://www.w3.org/2001/XMLSchema-instance" xsi:noNamespaceSchemaLocation="http://sumo.dlr.de/xsd/tripinfo_file.xsd">
    <tripinfo id="0" depart="4.00" departLane="bottom0A0_0" departPos="5.10" departSpeed="0.00" departDelay="0.00" arrival="84.00" arrivalLane="B0bottom1_0" arrivalPos="286.40" arrivalSpeed="12.74" duration="80.00" routeLength="858.56" waitingTime="1.00" waitingCount="1" stopTime="0.00" timeLoss="13.97" rerouteNo="0" devices="tripinfo_0" vType="DEFAULT_VEHTYPE" speedFactor="0.96" vaporized=""/>
    <tripinfo id="14" depart="60.00" departLane="bottom0A0_0" departPos="5.10" departSpeed="0.00" departDelay="0.00" arrival="141.00" arrivalLane="B0bottom1_0" arrivalPos="286.40" arrivalSpeed="13.87" duration="81.00" routeLength="858.56" waitingTime="2.00" waitingCount="2" stopTime="0.00" timeLoss="19.72" rerouteNo="0" devices="tripinfo_14" vType="DEFAULT_VEHTYPE" speedFactor="1.03" vaporized=""/>
    <tripinfo id="22" depart="98.00" departLane="right2D2_0" departPos="5.10" departSpeed="0.00" departDelay="0.00" arrival="168.00" arrivalLane="D3top3_0" arrivalPos="286.40" arrivalSpeed="14.40" duration="70.00" routeLength="879.60" waitingTime="0.00" waitingCount="0" stopTime="0.00" timeLoss="8.08" rerouteNo="0" devices="tripinfo_22" vType="DEFAULT_VEHTYPE" speedFactor="1.05" vaporized=""/>
    <tripinfo id="16" depart="67.00" departLane="right3D3_0" departPos="5.10" departSpeed="0.00" departDelay="0.00" arrival="183.00" arrivalLane="B3top1_0" arrivalPos="286.40" arrivalSpeed="14.45" duration="116.00" routeLength="1177.07" waitingTime="22.00" waitingCount="2" stopTime="0.00" timeLoss="39.46" rerouteNo="0" devices="tripinfo_16" vType="DEFAULT_VEHTYPE" speedFactor="1.12" vaporized=""/>
    <tripinfo id="18" depart="83.00" departLane="right2D2_0" departPos="5.10" departSpeed="0.00" departDelay="0.00" arrival="194.00" arrivalLane="D1right1_0" arrivalPos="286.40" arrivalSpeed="10.59" duration="111.00" routeLength="894.86" waitingTime="17.00" waitingCount="2" stopTime="0.00" timeLoss="33.38" rerouteNo="0" devices="tripinfo_18" vType="DEFAULT_VEHTYPE" speedFactor="0.85" vaporized=""/>
    <tripinfo id="4" depart="17.00" departLane="left1A1_0" departPos="5.10" departSpeed="0.00" departDelay="0.00" arrival="198.00" arrivalLane="A1left1_0" arrivalPos="286.40" arrivalSpeed="14.71" duration="181.00" routeLength="1748.75" waitingTime="30.00" waitingCount="5" stopTime="0.00" timeLoss="64.28" rerouteNo="0" devices="tripinfo_4" vType="DEFAULT_VEHTYPE" speedFactor="1.10" vaporized=""/>
    <tripinfo id="19" depart="83.00" departLane="left0A0_0" departPos="5.10" departSpeed="0.00" departDelay="0.00" arrival="205.00" arrivalLane="B0bottom1_0" arrivalPos="286.40" arrivalSpeed="12.91" duration="122.00" routeLength="876.90" waitingTime="44.00" waitingCount="2" stopTime="0.00" timeLoss="59.47" rerouteNo="0" devices="tripinfo_19" vType="DEFAULT_VEHTYPE" speedFactor="1.02" vaporized=""/>
    <tripinfo id="10" depart="34.00" departLane="top0A3_0" departPos="5.10" departSpeed="0.00" departDelay="0.00" arrival="206.00" arrivalLane="A1left1_0" arrivalPos="286.40" arrivalSpeed="11.92" duration="172.00" routeLength="1177.07" waitingTime="61.00" waitingCount="2" stopTime="0.00" timeLoss="78.61" rerouteNo="0" devices="tripinfo_10" vType="DEFAULT_VEHTYPE" speedFactor="0.91" vaporized=""/>
    <tripinfo id="1" depart="9.00" departLane="left3A3_0" departPos="5.10" departSpeed="0.00" departDelay="0.00" arrival="218.00" arrivalLane="D2right2_0" arrivalPos="286.40" arrivalSpeed="14.80" duration="209.00" routeLength="1782.72" waitingTime="62.00" waitingCount="3" stopTime="0.00" timeLoss="90.59" rerouteNo="0" devices="tripinfo_1" vType="DEFAULT_VEHTYPE" speedFactor="1.10" vaporized=""/>
    <tripinfo id="6" depart="20.00" departLane="bottom0A0_0" departPos="5.10" departSpeed="0.00" departDelay="0.00" arrival="226.00" arrivalLane="A2left2_0" arrivalPos="286.40" arrivalSpeed="12.84" duration="206.00" routeLength="1197.89" waitingTime="96.00" waitingCount="2" stopTime="0.00" timeLoss="112.58" rerouteNo="0" devices="tripinfo_6" vType="DEFAULT_VEHTYPE" speedFactor="0.93" vaporized=""/>
    <tripinfo id="40" depart="161.00" departLane="bottom2C0_0" departPos="5.10" departSpeed="0.00" departDelay="0.00" arrival="249.00" arrivalLane="D0bottom3_0" arrivalPos="286.40" arrivalSpeed="11.55" duration="88.00" routeLength="858.56" waitingTime="2.00" waitingCount="2" stopTime="0.00" timeLoss="18.78" rerouteNo="0" devices="tripinfo_40" vType="DEFAULT_VEHTYPE" speedFactor="0.91" vaporized=""/>
    <tripinfo id="41" depart="174.00" departLane="top3D3_0" departPos="5.10" departSpeed="0.00" departDelay="0.00" arrival="249.00" arrivalLane="D3right3_0" arrivalPos="286.40" arrivalSpeed="13.17" duration="75.00" routeLength="597.55" waitingTime="21.00" waitingCount="1" stopTime="0.00" timeLoss="32.23" rerouteNo="0" devices="tripinfo_41" vType="DEFAULT_VEHTYPE" speedFactor="1.03" vaporized=""/>
    <tripinfo id="30" depart="128.00" departLane="left3A3_0" departPos="5.10" departSpeed="0.00" departDelay="0.00" arrival="275.00" arrivalLane="A0bottom0_0" arrivalPos="286.40" arrivalSpeed="15.85" duration="147.00" routeLength="1479.94" waitingTime="33.00" waitingCount="3" stopTime="0.00" timeLoss="57.45" rerouteNo="0" devices="tripinfo_30" vType="DEFAULT_VEHTYPE" speedFactor="1.20" vaporized=""/>
    <tripinfo id="17" depart="82.00" departLane="top1B3_0" departPos="5.10" departSpeed="0.00" departDelay="0.00" arrival="287.00" arrivalLane="A3left3_0" arrivalPos="286.40" arrivalSpeed="13.86" duration="205.00" routeLength="879.60" waitingTime="128.00" waitingCount="2" stopTime="0.00" timeLoss="145.51" rerouteNo="0" devices="tripinfo_17" vType="DEFAULT_VEHTYPE" speedFactor="1.08" vaporized=""/>
    <tripinfo id="52" depart="239.00" departLane="right3D3_0" departPos="5.10" departSpeed="0.00" departDelay="0.00" arrival="289.00" arrivalLane="D3top3_0" arrivalPos="286.40" arrivalSpeed="14.85" duration="50.00" routeLength="576.73" waitingTime="1.00" waitingCount="1" stopTime="0.00" timeLoss="12.86" rerouteNo="0" devices="tripinfo_52" vType="DEFAULT_VEHTYPE" speedFactor="1.15" vaporized=""/>
    <tripinfo id="12" depart="37.00" departLane="right3D3_0" departPos="5.10" departSpeed="0.00" departDelay="0.00" arrival="290.00" arrivalLane="B0bottom1_0" arrivalPos="286.40" arrivalSpeed="12.27" duration="253.00" routeLength="2095.69" waitingTime="70.00" waitingCount="3" stopTime="0.00" timeLoss="93.80" rerouteNo="0" devices="tripinfo_12" vType="DEFAULT_VEHTYPE" speedFactor="0.95" vaporized=""/>
    <tripinfo id="33" depart="136.00" departLane="top1B3_0" departPos="5.10" departSpeed="0.00" departDelay="0.00" arrival="292.00" arrivalLane="B0bottom1_0" arrivalPos="286.40" arrivalSpeed="11.83" duration="156.00" routeLength="1495.58" waitingTime="17.00" waitingCount="3" stopTime="0.00" timeLoss="40.46" rerouteNo="0" devices="tripinfo_33" vType="DEFAULT_VEHTYPE" speedFactor="0.93" vaporized=""/>
    <tripinfo id="8" depart="27.00" departLane="top2C3_0" departPos="5.10" departSpeed="0.00" departDelay="0.00" arrival="299.00" arrivalLane="D0bottom3_0" arrivalPos="286.40" arrivalSpeed="13.18" duration="272.00" routeLength="1782.59" waitingTime="106.00" waitingCount="3" stopTime="0.00" timeLoss="139.67" rerouteNo="0" devices="tripinfo_8" vType="DEFAULT_VEHTYPE" speedFactor="0.98" vaporized=""/>
    <tripinfo id="11" depart="35.00" departLane="top2C3_0" departPos="5.10" departSpeed="0.00" departDelay="0.00" arrival="299.00" arrivalLane="D0bottom3_1" arrivalPos="286.40" arrivalSpeed="14.73" duration="264.00" routeLength="1782.59" waitingTime="107.00" waitingCount="3" stopTime="0.00" timeLoss="147.08" rerouteNo="0" devices="tripinfo_11" vType="DEFAULT_VEHTYPE" speedFactor="1.11" vaporized=""/>
    <tripinfo id="20" depart="90.00" departLane="right3D3_0" departPos="5.10" departSpeed="0.00" departDelay="0.00" arrival="302.00" arrivalLane="D0bottom3_0" arrivalPos="286.40" arrivalSpeed="13.94" duration="212.00" routeLength="1495.35" waitingTime="86.00" waitingCount="2" stopTime="0.00" timeLoss="105.06" rerouteNo="0" devices="tripinfo_20" vType="DEFAULT_VEHTYPE" speedFactor="1.01" vaporized=""/>
    <tripinfo id="23" depart="98.00" departLane="bottom3D0_0" departPos="5.10" departSpeed="0.00" departDelay="0.00" arrival="311.00" arrivalLane="C3top2_0" arrivalPos="286.40" arrivalSpeed="11.46" duration="213.00" routeLength="1782.59" waitingTime="46.00" waitingCount="2" stopTime="0.00" timeLoss="71.38" rerouteNo="0" devices="tripinfo_23" vType="DEFAULT_VEHTYPE" speedFactor="0.92" vaporized=""/>
    <tripinfo id="7" depart="21.00" departLane="top2C3_0" departPos="5.10" departSpeed="0.00" departDelay="0.00" arrival="318.00" arrivalLane="C3top2_0" arrivalPos="286.40" arrivalSpeed="14.83" duration="297.00" routeLength="1748.75" waitingTime="143.00" waitingCount="4" stopTime="0.00" timeLoss="177.29" rerouteNo="0" devices="tripinfo_7" vType="DEFAULT_VEHTYPE" speedFactor="1.08" vaporized=""/>
    <tripinfo id="42" depart="184.00" departLane="top0A3_0" departPos="5.10" departSpeed="0.00" departDelay="0.00" arrival="322.00" arrivalLane="C3top2_0" arrivalPos="286.40" arrivalSpeed="13.98" duration="138.00" routeLength="1197.66" waitingTime="34.00" waitingCount="2" stopTime="0.00" timeLoss="51.10" rerouteNo="0" devices="tripinfo_42" vType="DEFAULT_VEHTYPE" speedFactor="1.01" vaporized=""/>
    <tripinfo id="43" depart="186.00" departLane="bottom0A0_0" departPos="5.10" departSpeed="0.00" departDelay="0.00" arrival="343.00" arrivalLane="D0bottom3_0" arrivalPos="286.40" arrivalSpeed="13.11" duration="157.00" routeLength="1461.60" waitingTime="26.00" waitingCount="3" stopTime="0.00" timeLoss="49.81" rerouteNo="0" devices="tripinfo_43" vType="DEFAULT_VEHTYPE" speedFactor="1.00" vaporized=""/>
    <tripinfo id="56" depart="261.00" departLane="top0A3_0" departPos="5.10" departSpeed="0.00" departDelay="0.00" arrival="343.00" arrivalLane="A2left2_0" arrivalPos="286.40" arrivalSpeed="12.79" duration="82.00" routeLength="876.90" waitingTime="1.00" waitingCount="1" stopTime="0.00" timeLoss="12.99" rerouteNo="0" devices="tripinfo_56" vType="DEFAULT_VEHTYPE" speedFactor="0.93" vaporized=""/>
    <tripinfo id="44" depart="193.00" departLane="left0A0_0" departPos="5.10" departSpeed="0.00" departDelay="0.00" arrival="348.00" arrivalLane="D0bottom3_0" arrivalPos="286.40" arrivalSpeed="15.36" duration="155.00" routeLength="1477.24" waitingTime="24.00" waitingCount="4" stopTime="0.00" timeLoss="61.33" rerouteNo="0" devices="tripinfo_44" vType="DEFAULT_VEHTYPE" speedFactor="1.15" vaporized=""/>
    <tripinfo id="5" depart="18.00" departLane="right0D0_0" departPos="5.10" departSpeed="0.00" departDelay="0.00" arrival="349.00" arrivalLane="A2left2_0" arrivalPos="286.40" arrivalSpeed="13.92" duration="331.00" routeLength="2082.76" waitingTime="139.00" waitingCount="6" stopTime="0.00" timeLoss="183.72" rerouteNo="0" devices="tripinfo_5" vType="DEFAULT_VEHTYPE" speedFactor="1.03" vaporized=""/>
    <tripinfo id="34" depart="138.00" departLane="bottom3D0_0" departPos="5.10" departSpeed="0.00" departDelay="2.00" arrival="351.00" arrivalLane="D3right3_0" arrivalPos="286.40" arrivalSpeed="16.04" duration="213.00" routeLength="1477.24" waitingTime="89.00" waitingCount="4" stopTime="0.00" timeLoss="121.62" rerouteNo="0" devices="tripinfo_34" vType="DEFAULT_VEHTYPE" speedFactor="1.18" vaporized=""/>
    <tripinfo id="25" depart="105.00" departLane="left3A3_0" departPos="5.10" departSpeed="0.00" departDelay="0.00" arrival="362.00" arrivalLane="D2right2_0" arrivalPos="286.40" arrivalSpeed="11.30" duration="257.00" routeLength="1782.72" waitingTime="80.00" waitingCount="4" stopTime="0.00" timeLoss="109.20" rerouteNo="0" devices="tripinfo_25" vType="DEFAULT_VEHTYPE" speedFactor="0.88" vaporized=""/>
    <tripinfo id="13" depart="40.00" departLane="bottom0A0_0" departPos="5.10" departSpeed="0.00" departDelay="0.00" arrival="363.00" arrivalLane="D2right2_1" arrivalPos="286.40" arrivalSpeed="12.29" duration="323.00" routeLength="2080.28" waitingTime="119.00" waitingCount="5" stopTime="0.00" timeLoss="158.75" rerouteNo="0" devices="tripinfo_13" vType="DEFAULT_VEHTYPE" speedFactor="0.92" vaporized=""/>
    <tripinfo id="26" depart="108.00" departLane="top2C3_0" departPos="5.10" departSpeed="0.00" departDelay="0.00" arrival="377.00" arrivalLane="D0bottom3_0" arrivalPos="286.40" arrivalSpeed="15.12" duration="269.00" routeLength="1782.59" waitingTime="125.00" waitingCount="3" stopTime="0.00" timeLoss="153.13" rerouteNo="0" devices="tripinfo_26" vType="DEFAULT_VEHTYPE" speedFactor="1.12" vaporized=""/>
    <tripinfo id="15" depart="63.00" departLane="bottom3D0_0" departPos="5.10" departSpeed="0.00" departDelay="0.00" arrival="382.00" arrivalLane="A2left2_0" arrivalPos="286.40" arrivalSpeed="11.96" duration="319.00" routeLength="2095.69" waitingTime="112.00" waitingCount="5" stopTime="0.00" timeLoss="147.41" rerouteNo="0" devices="tripinfo_15" vType="DEFAULT_VEHTYPE" speedFactor="0.89" vaporized=""/>
    <tripinfo id="27" depart="119.00" departLane="right2D2_0" departPos="5.10" departSpeed="0.00" departDelay="0.00" arrival="389.00" arrivalLane="A1left1_0" arrivalPos="286.40" arrivalSpeed="13.68" duration="270.00" routeLength="1782.59" waitingTime="110.00" waitingCount="4" stopTime="0.00" timeLoss="138.80" rerouteNo="0" devices="tripinfo_27" vType="DEFAULT_VEHTYPE" speedFactor="0.99" vaporized=""/>
    <tripinfo id="46" depart="204.00" departLane="bottom3D0_0" departPos="5.10" departSpeed="0.00" departDelay="0.00" arrival="389.00" arrivalLane="D3right3_0" arrivalPos="286.40" arrivalSpeed="14.85" duration="185.00" routeLength="1477.24" waitingTime="61.00" waitingCount="3" stopTime="0.00" timeLoss="84.69" rerouteNo="0" devices="tripinfo_46" vType="DEFAULT_VEHTYPE" speedFactor="1.07" vaporized=""/>
    <tripinfo id="31" depart="135.00" departLane="bottom3D0_0" departPos="5.10" departSpeed="0.00" departDelay="0.00" arrival="397.00" arrivalLane="B3top1_0" arrivalPos="286.40" arrivalSpeed="15.18" duration="262.00" routeLength="2080.05" waitingTime="86.00" waitingCount="5" stopTime="0.00" timeLoss="124.05" rerouteNo="0" devices="tripinfo_31" vType="DEFAULT_VEHTYPE" speedFactor="1.10" vaporized=""/>
    <tripinfo id="21" depart="97.00" departLane="top0A3_0" departPos="5.10" departSpeed="0.00" departDelay="0.00" arrival="403.00" arrivalLane="D1right1_1" arrivalPos="286.40" arrivalSpeed="13.72" duration="306.00" routeLength="2095.69" waitingTime="122.00" waitingCount="4" stopTime="0.00" timeLoss="162.59" rerouteNo="0" devices="tripinfo_21" vType="DEFAULT_VEHTYPE" speedFactor="1.06" vaporized=""/>
    <tripinfo id="2" depart="10.00" departLane="top3D3_0" departPos="5.10" departSpeed="0.00" departDelay="0.00" arrival="407.00" arrivalLane="A0left0_0" arrivalPos="286.40" arrivalSpeed="14.69" duration="397.00" routeLength="2380.45" waitingTime="189.00" waitingCount="7" stopTime="0.00" timeLoss="242.46" rerouteNo="0" devices="tripinfo_2" vType="DEFAULT_VEHTYPE" speedFactor="1.12" vaporized=""/>
    <tripinfo id="29" depart="122.00" departLane="right2D2_0" departPos="5.10" departSpeed="0.00" departDelay="0.00" arrival="408.00" arrivalLane="A3top0_0" arrivalPos="286.40" arrivalSpeed="13.61" duration="286.00" routeLength="1780.11" waitingTime="130.00" waitingCount="4" stopTime="0.00" timeLoss="161.67" rerouteNo="0" devices="tripinfo_29" vType="DEFAULT_VEHTYPE" speedFactor="1.04" vaporized=""/>
    <tripinfo id="3" depart="13.00" departLane="bottom2C0_0" departPos="5.10" departSpeed="0.00" departDelay="0.00" arrival="409.00" arrivalLane="D1right1_0" arrivalPos="286.40" arrivalSpeed="9.88" duration="396.00" routeLength="1179.77" waitingTime="268.00" waitingCount="2" stopTime="0.00" timeLoss="284.74" rerouteNo="0" devices="tripinfo_3" vType="DEFAULT_VEHTYPE" speedFactor="0.77" vaporized=""/>
    <tripinfo id="24" depart="102.00" departLane="right0D0_0" departPos="5.10" departSpeed="0.00" departDelay="0.00" arrival="410.00" arrivalLane="A3top0_0" arrivalPos="286.40" arrivalSpeed="13.70" duration="308.00" routeLength="2380.45" waitingTime="100.00" waitingCount="4" stopTime="0.00" timeLoss="140.35" rerouteNo="0" devices="tripinfo_24" vType="DEFAULT_VEHTYPE" speedFactor="1.03" vaporized=""/>
    <tripinfo id="38" depart="149.00" departLane="right0D0_0" departPos="5.10" departSpeed="0.00" departDelay="0.00" arrival="410.00" arrivalLane="A3left3_1" arrivalPos="286.40" arrivalSpeed="14.15" duration="261.00" routeLength="2382.93" waitingTime="67.00" waitingCount="3" stopTime="0.00" timeLoss="100.52" rerouteNo="0" devices="tripinfo_38" vType="DEFAULT_VEHTYPE" speedFactor="1.08" vaporized=""/>
    <tripinfo id="35" depart="138.00" departLane="left3A3_0" departPos="5.10" departSpeed="0.00" departDelay="0.00" arrival="412.00" arrivalLane="A3left3_0" arrivalPos="286.40" arrivalSpeed="11.83" duration="274.00" routeLength="1748.75" waitingTime="103.00" waitingCount="4" stopTime="0.00" timeLoss="130.98" rerouteNo="0" devices="tripinfo_35" vType="DEFAULT_VEHTYPE" speedFactor="0.89" vaporized=""/>
    <tripinfo id="57" depart="264.00" departLane="top0A3_0" departPos="5.10" departSpeed="0.00" departDelay="1.00" arrival="415.00" arrivalLane="C3top2_0" arrivalPos="286.40" arrivalSpeed="13.02" duration="151.00" routeLength="1197.66" waitingTime="45.00" waitingCount="1" stopTime="0.00" timeLoss="58.08" rerouteNo="0" devices="tripinfo_57" vType="DEFAULT_VEHTYPE" speedFactor="0.94" vaporized=""/>
    <tripinfo id="50" depart="236.00" departLane="top3D3_0" departPos="5.10" departSpeed="0.00" departDelay="0.00" arrival="417.00" arrivalLane="D2right2_0" arrivalPos="286.40" arrivalSpeed="10.79" duration="181.00" routeLength="897.72" waitingTime="84.00" waitingCount="1" stopTime="0.00" timeLoss="96.38" rerouteNo="0" devices="tripinfo_50" vType="DEFAULT_VEHTYPE" speedFactor="0.78" vaporized=""/>
    <tripinfo id="9" depart="28.00" departLane="bottom2C0_0" departPos="5.10" departSpeed="0.00" departDelay="0.00" arrival="419.00" arrivalLane="D1right1_0" arrivalPos="286.40" arrivalSpeed="10.65" duration="391.00" routeLength="1179.77" waitingTime="262.00" waitingCount="2" stopTime="0.00" timeLoss="286.32" rerouteNo="0" devices="tripinfo_9" vType="DEFAULT_VEHTYPE" speedFactor="0.82" vaporized=""/>
    <tripinfo id="45" depart="193.00" departLane="left3A3_0" departPos="5.10" departSpeed="0.00" departDelay="0.00" arrival="427.00" arrivalLane="A0bottom0_0" arrivalPos="286.40" arrivalSpeed="14.38" duration="234.00" routeLength="1479.94" waitingTime="111.00" waitingCount="3" stopTime="0.00" timeLoss="136.28" rerouteNo="0" devices="tripinfo_45" vType="DEFAULT_VEHTYPE" speedFactor="1.10" vaporized=""/>
    <tripinfo id="72" depart="352.00" departLane="left2A2_0" departPos="5.10" departSpeed="0.00" departDelay="0.00" arrival="427.00" arrivalLane="A1left1_0" arrivalPos="286.40" arrivalSpeed="14.04" duration="75.00" routeLength="858.56" waitingTime="1.00" waitingCount="1" stopTime="0.00" timeLoss="12.82" rerouteNo="0" devices="tripinfo_72" vType="DEFAULT_VEHTYPE" speedFactor="1.02" vaporized=""/>
    <tripinfo id="48" depart="214.00" departLane="left1A1_0" departPos="5.10" departSpeed="0.00" departDelay="0.00" arrival="428.00" arrivalLane="D0bottom3_0" arrivalPos="286.40" arrivalSpeed="15.23" duration="214.00" routeLength="1780.11" waitingTime="62.00" waitingCount="3" stopTime="0.00" timeLoss="98.72" rerouteNo="0" devices="tripinfo_48" vType="DEFAULT_VEHTYPE" speedFactor="1.12" vaporized=""/>
    <tripinfo id="49" depart="229.00" departLane="top2C3_0" departPos="5.10" departSpeed="0.00" departDelay="0.00" arrival="431.00" arrivalLane="A3left3_0" arrivalPos="286.40" arrivalSpeed="11.80" duration="202.00" routeLength="1179.77" waitingTime="89.00" waitingCount="2" stopTime="0.00" timeLoss="107.29" rerouteNo="0" devices="tripinfo_49" vType="DEFAULT_VEHTYPE" speedFactor="0.91" vaporized=""/>
    <tripinfo id="55" depart="253.00" departLane="top1B3_0" departPos="5.10" departSpeed="0.00" departDelay="0.00" arrival="431.00" arrivalLane="B3top1_0" arrivalPos="286.40" arrivalSpeed="11.94" duration="178.00" routeLength="1748.75" waitingTime="8.00" waitingCount="5" stopTime="0.00" timeLoss="42.16" rerouteNo="0" devices="tripinfo_55" vType="DEFAULT_VEHTYPE" speedFactor="0.94" vaporized=""/>
    <tripinfo id="32" depart="135.00" departLane="right2D2_0" departPos="5.10" departSpeed="0.00" departDelay="0.00" arrival="434.00" arrivalLane="A0bottom0_0" arrivalPos="286.40" arrivalSpeed="11.75" duration="299.00" routeLength="2095.69" waitingTime="92.00" waitingCount="4" stopTime="0.00" timeLoss="127.31" rerouteNo="0" devices="tripinfo_32" vType="DEFAULT_VEHTYPE" speedFactor="0.88" vaporized=""/>
    <tripinfo id="68" depart="337.00" departLane="bottom1B0_0" departPos="5.10" departSpeed="0.00" departDelay="0.00" arrival="444.00" arrivalLane="D0bottom3_0" arrivalPos="286.40" arrivalSpeed="12.46" duration="107.00" routeLength="1161.43" waitingTime="2.00" waitingCount="2" stopTime="0.00" timeLoss="20.37" rerouteNo="0" devices="tripinfo_68" vType="DEFAULT_VEHTYPE" speedFactor="0.99" vaporized=""/>
    <tripinfo id="60" depart="292.00" departLane="top1B3_0" departPos="5.10" departSpeed="0.00" departDelay="0.00" arrival="447.00" arrivalLane="A2left2_0" arrivalPos="286.40" arrivalSpeed="14.91" duration="155.00" routeLength="1179.77" waitingTime="58.00" waitingCount="2" stopTime="0.00" timeLoss="77.39" rerouteNo="0" devices="tripinfo_60" vType="DEFAULT_VEHTYPE" speedFactor="1.11" vaporized=""/>
    <tripinfo id="81" depart="389.00" departLane="left0A0_0" departPos="5.10" departSpeed="0.00" departDelay="0.00" arrival="448.00" arrivalLane="A0bottom0_0" arrivalPos="286.40" arrivalSpeed="10.97" duration="59.00" routeLength="576.73" waitingTime="1.00" waitingCount="1" stopTime="0.00" timeLoss="10.20" rerouteNo="0" devices="tripinfo_81" vType="DEFAULT_VEHTYPE" speedFactor="0.87" vaporized=""/>
    <tripinfo id="59" depart="279.00" departLane="right1D1_0" departPos="5.10" departSpeed="0.00" departDelay="0.00" arrival="460.00" arrivalLane="A0left0_0" arrivalPos="286.40" arrivalSpeed="12.38" duration="181.00" routeLength="1782.59" waitingTime="20.00" waitingCount="4" stopTime="0.00" timeLoss="48.10" rerouteNo="0" devices="tripinfo_59" vType="DEFAULT_VEHTYPE" speedFactor="0.98" vaporized=""/>
    <tripinfo id="79" depart="377.00" departLane="bottom3D0_0" departPos="5.10" departSpeed="0.00" departDelay="0.00" arrival="461.00" arrivalLane="D1right1_0" arrivalPos="286.40" arrivalSpeed="11.92" duration="84.00" routeLength="876.90" waitingTime="1.00" waitingCount="1" stopTime="0.00" timeLoss="10.38" rerouteNo="0" devices="tripinfo_79" vType="DEFAULT_VEHTYPE" speedFactor="0.87" vaporized=""/>
    <tripinfo id="37" depart="147.00" departLane="bottom0A0_0" departPos="5.10" departSpeed="0.00" departDelay="0.00" arrival="468.00" arrivalLane="D3right3_0" arrivalPos="286.40" arrivalSpeed="13.99" duration="321.00" routeLength="2380.45" waitingTime="107.00" waitingCount="7" stopTime="0.00" timeLoss="161.16" rerouteNo="0" devices="tripinfo_37" vType="DEFAULT_VEHTYPE" speedFactor="1.08" vaporized=""/>
    <tripinfo id="51" depart="238.00" departLane="left1A1_0" departPos="5.10" departSpeed="0.00" departDelay="0.00" arrival="468.00" arrivalLane="B0bottom1_0" arrivalPos="286.40" arrivalSpeed="14.80" duration="230.00" routeLength="1179.77" waitingTime="129.00" waitingCount="2" stopTime="0.00" timeLoss="152.13" rerouteNo="0" devices="tripinfo_51" vType="DEFAULT_VEHTYPE" speedFactor="1.11" vaporized=""/>
    <tripinfo id="67" depart="330.00" departLane="top1B3_0" departPos="5.10" departSpeed="0.00" departDelay="0.00" arrival="471.00" arrivalLane="B0bottom1_0" arrivalPos="286.40" arrivalSpeed="13.21" duration="141.00" routeLength="1495.58" waitingTime="16.00" waitingCount="1" stopTime="0.00" timeLoss="34.01" rerouteNo="0" devices="tripinfo_67" vType="DEFAULT_VEHTYPE" speedFactor="1.01" vaporized=""/>
    <tripinfo id="86" depart="427.00" departLane="left0A0_0" departPos="5.10" departSpeed="0.00" departDelay="0.00" arrival="476.00" arrivalLane="A0bottom0_0" arrivalPos="286.40" arrivalSpeed="16.00" duration="49.00" routeLength="576.73" waitingTime="1.00" waitingCount="1" stopTime="0.00" timeLoss="13.16" rerouteNo="0" devices="tripinfo_86" vType="DEFAULT_VEHTYPE" speedFactor="1.19" vaporized=""/>
    <tripinfo id="28" depart="122.00" departLane="top0A3_0" departPos="5.10" departSpeed="0.00" departDelay="0.00" arrival="480.00" arrivalLane="D1right1_0" arrivalPos="286.40" arrivalSpeed="13.39" duration="358.00" routeLength="2095.69" waitingTime="153.00" waitingCount="7" stopTime="0.00" timeLoss="202.95" rerouteNo="0" devices="tripinfo_28" vType="DEFAULT_VEHTYPE" speedFactor="0.98" vaporized=""/>
    <tripinfo id="69" depart="340.00" departLane="right0D0_0" departPos="5.10" departSpeed="0.00" departDelay="0.00" arrival="482.00" arrivalLane="D3top3_0" arrivalPos="286.40" arrivalSpeed="13.82" duration="142.00" routeLength="1479.94" waitingTime="10.00" waitingCount="3" stopTime="0.00" timeLoss="34.90" rerouteNo="0" devices="tripinfo_69" vType="DEFAULT_VEHTYPE" speedFactor="1.01" vaporized=""/>
    <tripinfo id="39" depart="156.00" departLane="top0A3_0" departPos="5.10" departSpeed="0.00" departDelay="0.00" arrival="483.00" arrivalLane="D1right1_0" arrivalPos="286.40" arrivalSpeed="11.96" duration="327.00" routeLength="2095.69" waitingTime="111.00" waitingCount="5" stopTime="0.00" timeLoss="162.88" rerouteNo="0" devices="tripinfo_39" vType="DEFAULT_VEHTYPE" speedFactor="0.93" vaporized=""/>
    <tripinfo id="62" depart="303.00" departLane="left1A1_0" departPos="5.10" departSpeed="0.00" departDelay="0.00" arrival="516.00" arrivalLane="A1left1_0" arrivalPos="286.40" arrivalSpeed="15.19" duration="213.00" routeLength="1748.75" waitingTime="67.00" waitingCount="3" stopTime="0.00" timeLoss="95.67" rerouteNo="0" devices="tripinfo_62" vType="DEFAULT_VEHTYPE" speedFactor="1.10" vaporized=""/>
    <tripinfo id="61" depart="294.00" departLane="top3D3_0" departPos="5.10" departSpeed="0.00" departDelay="0.00" arrival="519.00" arrivalLane="D0bottom3_0" arrivalPos="286.40" arrivalSpeed="12.74" duration="225.00" routeLength="1495.58" waitingTime="93.00" waitingCount="3" stopTime="0.00" timeLoss="117.50" rerouteNo="0" devices="tripinfo_61" vType="DEFAULT_VEHTYPE" speedFactor="1.00" vaporized=""/>
    <tripinfo id="98" depart="474.00" departLane="right3D3_0" departPos="5.10" departSpeed="0.00" departDelay="0.00" arrival="520.00" arrivalLane="D3top3_0" arrivalPos="286.40" arrivalSpeed="13.68" duration="46.00" routeLength="576.73" waitingTime="0.00" waitingCount="0" stopTime="0.00" timeLoss="6.81" rerouteNo="0" devices="tripinfo_98" vType="DEFAULT_VEHTYPE" speedFactor="1.08" vaporized=""/>
    <tripinfo id="89" depart="431.00" departLane="left1A1_0" departPos="5.10" departSpeed="0.00" departDelay="0.00" arrival="529.00" arrivalLane="A0bottom0_0" arrivalPos="286.40" arrivalSpeed="13.80" duration="98.00" routeLength="879.60" waitingTime="18.00" waitingCount="2" stopTime="0.00" timeLoss="33.50" rerouteNo="0" devices="tripinfo_89" vType="DEFAULT_VEHTYPE" speedFactor="1.00" vaporized=""/>
    <tripinfo id="70" depart="342.00" departLane="bottom0A0_0" departPos="5.10" departSpeed="0.00" departDelay="0.00" arrival="541.00" arrivalLane="A3top0_0" arrivalPos="286.40" arrivalSpeed="13.59" duration="199.00" routeLength="1495.58" waitingTime="67.00" waitingCount="3" stopTime="0.00" timeLoss="91.46" rerouteNo="0" devices="tripinfo_70" vType="DEFAULT_VEHTYPE" speedFactor="1.00" vaporized=""/>
    <tripinfo id="83" depart="396.00" departLane="left2A2_0" departPos="5.10" departSpeed="0.00" departDelay="0.00" arrival="541.00" arrivalLane="A3left3_0" arrivalPos="286.40" arrivalSpeed="11.71" duration="145.00" routeLength="894.86" waitingTime="58.00" waitingCount="2" stopTime="0.00" timeLoss="74.64" rerouteNo="0" devices="tripinfo_83" vType="DEFAULT_VEHTYPE" speedFactor="0.93" vaporized=""/>
    <tripinfo id="76" depart="372.00" departLane="bottom3D0_0" departPos="5.10" departSpeed="0.00" departDelay="0.00" arrival="558.00" arrivalLane="B0bottom1_0" arrivalPos="286.40" arrivalSpeed="15.25" duration="186.00" routeLength="1197.66" waitingTime="97.00" waitingCount="1" stopTime="0.00" timeLoss="110.26" rerouteNo="0" devices="tripinfo_76" vType="DEFAULT_VEHTYPE" speedFactor="1.15" vaporized=""/>
    <tripinfo id="77" depart="373.00" departLane="right0D0_0" departPos="5.10" departSpeed="0.00" departDelay="0.00" arrival="572.00" arrivalLane="D3right3_0" arrivalPos="286.40" arrivalSpeed="11.19" duration="199.00" routeLength="1461.60" waitingTime="50.00" waitingCount="3" stopTime="0.00" timeLoss="76.90" rerouteNo="0" devices="tripinfo_77" vType="DEFAULT_VEHTYPE" speedFactor="0.87" vaporized=""/>