<?xml version="1.0" encoding="UTF-8"?>

<!-- generated on 12/19/21 12:47:42 by Eclipse SUMO sumo Version 1.7.0
<configuration xmlns:xsi="http://www.w3.org/2001/XMLSchema-instance" xsi:noNamespaceSchemaLocation="http://sumo.dlr.de/xsd/sumoConfiguration.xsd">

    <input>
        <net-file value="C:\Users\longs\Desktop\RESCO-main\environments\grid4x4\grid4x4.net.xml"/>
        <route-files value="C:\Users\longs\Desktop\RESCO-main\environments\grid4x4\grid4x4_10.rou.xml"/>
    </input>

    <output>
        <tripinfo-output value="C:\Users\longs\Desktop\RESCO-main\logs\IDQN-tr1-grid4x4-0-drqlong-delaydiff_pressure03\tripinfo_10.xml"/>
        <tripinfo-output.write-unfinished value="true"/>
    </output>

    <processing>
        <time-to-teleport value="-1"/>
    </processing>

    <report>
        <no-warnings value="true"/>
        <no-step-log value="true"/>
    </report>

    <traci_server>
        <remote-port value="59370"/>
    </traci_server>

    <random_number>
        <random value="true"/>
    </random_number>

</configuration>
-->

<tripinfos xmlns:xsi="http://www.w3.org/2001/XMLSchema-instance" xsi:noNamespaceSchemaLocation="http://sumo.dlr.de/xsd/tripinfo_file.xsd">
    <tripinfo id="8" depart="22.00" departLane="right2D2_0" departPos="5.10" departSpeed="0.00" departDelay="0.00" arrival="96.00" arrivalLane="D3right3_0" arrivalPos="286.40" arrivalSpeed="13.47" duration="74.00" routeLength="858.56" waitingTime="0.00" waitingCount="0" stopTime="0.00" timeLoss="10.18" rerouteNo="0" devices="tripinfo_8" vType="DEFAULT_VEHTYPE" speedFactor="1.00" vaporized=""/>
    <tripinfo id="10" depart="37.00" departLane="left2A2_0" departPos="5.10" departSpeed="0.00" departDelay="0.00" arrival="120.00" arrivalLane="A1left1_0" arrivalPos="286.40" arrivalSpeed="11.64" duration="83.00" routeLength="858.56" waitingTime="1.00" waitingCount="1" stopTime="0.00" timeLoss="14.25" rerouteNo="0" devices="tripinfo_10" vType="DEFAULT_VEHTYPE" speedFactor="0.92" vaporized=""/>
    <tripinfo id="15" depart="55.00" departLane="left3A3_0" departPos="5.10" departSpeed="0.00" departDelay="0.00" arrival="134.00" arrivalLane="A2left2_0" arrivalPos="286.40" arrivalSpeed="14.09" duration="79.00" routeLength="858.56" waitingTime="2.00" waitingCount="2" stopTime="0.00" timeLoss="16.94" rerouteNo="0" devices="tripinfo_15" vType="DEFAULT_VEHTYPE" speedFactor="1.02" vaporized=""/>
    <tripinfo id="1" depart="2.00" departLane="top1B3_0" departPos="5.10" departSpeed="0.00" departDelay="0.00" arrival="140.00" arrivalLane="D3top3_0" arrivalPos="286.40" arrivalSpeed="12.77" duration="138.00" routeLength="1197.66" waitingTime="31.00" waitingCount="2" stopTime="0.00" timeLoss="47.87" rerouteNo="0" devices="tripinfo_1" vType="DEFAULT_VEHTYPE" speedFactor="0.98" vaporized=""/>
    <tripinfo id="3" depart="8.00" departLane="right2D2_0" departPos="5.10" departSpeed="0.00" departDelay="0.00" arrival="146.00" arrivalLane="C3top2_0" arrivalPos="286.40" arrivalSpeed="15.39" duration="138.00" routeLength="1179.77" waitingTime="42.00" waitingCount="3" stopTime="0.00" timeLoss="64.50" rerouteNo="0" devices="tripinfo_3" vType="DEFAULT_VEHTYPE" speedFactor="1.16" vaporized=""/>
    <tripinfo id="7" depart="19.00" departLane="right2D2_0" departPos="5.10" departSpeed="0.00" departDelay="0.00" arrival="159.00" arrivalLane="B3top1_0" arrivalPos="286.40" arrivalSpeed="13.64" duration="140.00" routeLength="1479.94" waitingTime="5.00" waitingCount="2" stopTime="0.00" timeLoss="31.21" rerouteNo="0" devices="tripinfo_7" vType="DEFAULT_VEHTYPE" speedFactor="0.99" vaporized=""/>
    <tripinfo id="4" depart="16.00" departLane="left0A0_0" departPos="5.10" departSpeed="0.00" departDelay="0.00" arrival="179.00" arrivalLane="D0right0_0" arrivalPos="286.40" arrivalSpeed="13.99" duration="163.00" routeLength="1495.58" waitingTime="36.00" waitingCount="3" stopTime="0.00" timeLoss="62.46" rerouteNo="0" devices="tripinfo_4" vType="DEFAULT_VEHTYPE" speedFactor="1.07" vaporized=""/>
    <tripinfo id="2" depart="5.00" departLane="top1B3_0" departPos="5.10" departSpeed="0.00" departDelay="3.00" arrival="186.00" arrivalLane="B3top1_0" arrivalPos="286.40" arrivalSpeed="14.85" duration="181.00" routeLength="1748.75" waitingTime="41.00" waitingCount="4" stopTime="0.00" timeLoss="70.06" rerouteNo="0" devices="tripinfo_2" vType="DEFAULT_VEHTYPE" speedFactor="1.16" vaporized=""/>
    <tripinfo id="22" depart="87.00" departLane="top0A3_0" departPos="5.10" departSpeed="0.00" departDelay="0.00" arrival="193.00" arrivalLane="B3top1_0" arrivalPos="286.40" arrivalSpeed="12.79" duration="106.00" routeLength="894.86" waitingTime="23.00" waitingCount="1" stopTime="0.00" timeLoss="36.21" rerouteNo="0" devices="tripinfo_22" vType="DEFAULT_VEHTYPE" speedFactor="0.94" vaporized=""/>
    <tripinfo id="0" depart="1.00" departLane="left0A0_0" departPos="5.10" departSpeed="0.00" departDelay="0.00" arrival="207.00" arrivalLane="D1right1_0" arrivalPos="286.40" arrivalSpeed="13.99" duration="206.00" routeLength="1782.59" waitingTime="50.00" waitingCount="5" stopTime="0.00" timeLoss="87.82" rerouteNo="0" devices="tripinfo_0" vType="DEFAULT_VEHTYPE" speedFactor="1.10" vaporized=""/>
    <tripinfo id="14" depart="54.00" departLane="top1B3_0" departPos="5.10" departSpeed="0.00" departDelay="0.00" arrival="216.00" arrivalLane="B3top1_0" arrivalPos="286.40" arrivalSpeed="15.65" duration="162.00" routeLength="1748.75" waitingTime="18.00" waitingCount="4" stopTime="0.00" timeLoss="51.35" rerouteNo="0" devices="tripinfo_14" vType="DEFAULT_VEHTYPE" speedFactor="1.16" vaporized=""/>
    <tripinfo id="23" depart="89.00" departLane="right2D2_0" departPos="5.10" departSpeed="0.00" departDelay="0.00" arrival="219.00" arrivalLane="D0bottom3_0" arrivalPos="286.40" arrivalSpeed="12.72" duration="130.00" routeLength="1195.18" waitingTime="21.00" waitingCount="3" stopTime="0.00" timeLoss="42.83" rerouteNo="0" devices="tripinfo_23" vType="DEFAULT_VEHTYPE" speedFactor="0.99" vaporized=""/>
    <tripinfo id="21" depart="84.00" departLane="right3D3_0" departPos="5.10" departSpeed="0.00" departDelay="0.00" arrival="229.00" arrivalLane="A3top0_0" arrivalPos="286.40" arrivalSpeed="12.34" duration="145.00" routeLength="1477.24" waitingTime="13.00" waitingCount="2" stopTime="0.00" timeLoss="32.51" rerouteNo="0" devices="tripinfo_21" vType="DEFAULT_VEHTYPE" speedFactor="0.95" vaporized=""/>
    <tripinfo id="16" depart="60.00" departLane="bottom2C0_0" departPos="5.10" departSpeed="0.00" departDelay="0.00" arrival="246.00" arrivalLane="D3right3_0" arrivalPos="286.40" arrivalSpeed="15.51" duration="186.00" routeLength="1780.11" waitingTime="40.00" waitingCount="4" stopTime="0.00" timeLoss="74.59" rerouteNo="0" devices="tripinfo_16" vType="DEFAULT_VEHTYPE" speedFactor="1.16" vaporized=""/>
    <tripinfo id="9" depart="28.00" departLane="right2D2_0" departPos="5.10" departSpeed="0.00" departDelay="0.00" arrival="248.00" arrivalLane="D2right2_0" arrivalPos="286.40" arrivalSpeed="13.58" duration="220.00" routeLength="1748.75" waitingTime="71.00" waitingCount="4" stopTime="0.00" timeLoss="100.24" rerouteNo="0" devices="tripinfo_9" vType="DEFAULT_VEHTYPE" speedFactor="1.07" vaporized=""/>
    <tripinfo id="48" depart="201.00" departLane="right3D3_0" departPos="5.10" departSpeed="0.00" departDelay="0.00" arrival="253.00" arrivalLane="D3top3_0" arrivalPos="286.40" arrivalSpeed="14.74" duration="52.00" routeLength="576.73" waitingTime="1.00" waitingCount="1" stopTime="0.00" timeLoss="12.36" rerouteNo="0" devices="tripinfo_48" vType="DEFAULT_VEHTYPE" speedFactor="1.07" vaporized=""/>
    <tripinfo id="13" depart="49.00" departLane="top2C3_0" departPos="5.10" departSpeed="0.00" departDelay="0.00" arrival="267.00" arrivalLane="D0right0_0" arrivalPos="286.40" arrivalSpeed="12.95" duration="218.00" routeLength="1795.52" waitingTime="65.00" waitingCount="2" stopTime="0.00" timeLoss="90.00" rerouteNo="0" devices="tripinfo_13" vType="DEFAULT_VEHTYPE" speedFactor="1.02" vaporized=""/>
    <tripinfo id="44" depart="187.00" departLane="right2D2_0" departPos="5.10" departSpeed="0.00" departDelay="0.00" arrival="267.00" arrivalLane="D3top3_0" arrivalPos="286.40" arrivalSpeed="14.85" duration="80.00" routeLength="879.60" waitingTime="3.00" waitingCount="1" stopTime="0.00" timeLoss="21.40" rerouteNo="0" devices="tripinfo_44" vType="DEFAULT_VEHTYPE" speedFactor="1.09" vaporized=""/>
    <tripinfo id="5" depart="17.00" departLane="left2A2_0" departPos="5.10" departSpeed="0.00" departDelay="0.00" arrival="273.00" arrivalLane="C0bottom2_0" arrivalPos="286.40" arrivalSpeed="10.85" duration="256.00" routeLength="1780.11" waitingTime="69.00" waitingCount="5" stopTime="0.00" timeLoss="103.57" rerouteNo="0" devices="tripinfo_5" vType="DEFAULT_VEHTYPE" speedFactor="0.85" vaporized=""/>
    <tripinfo id="20" depart="83.00" departLane="bottom0A0_0" departPos="5.10" departSpeed="0.00" departDelay="0.00" arrival="277.00" arrivalLane="A0bottom0_0" arrivalPos="286.40" arrivalSpeed="15.31" duration="194.00" routeLength="1748.75" waitingTime="44.00" waitingCount="4" stopTime="0.00" timeLoss="78.81" rerouteNo="0" devices="tripinfo_20" vType="DEFAULT_VEHTYPE" speedFactor="1.11" vaporized=""/>
    <tripinfo id="40" depart="176.00" departLane="left2A2_0" departPos="5.10" departSpeed="0.00" departDelay="0.00" arrival="285.00" arrivalLane="A3left3_0" arrivalPos="286.40" arrivalSpeed="12.04" duration="109.00" routeLength="894.86" waitingTime="28.00" waitingCount="1" stopTime="0.00" timeLoss="39.50" rerouteNo="0" devices="tripinfo_40" vType="DEFAULT_VEHTYPE" speedFactor="0.94" vaporized=""/>
    <tripinfo id="12" depart="47.00" departLane="right3D3_0" departPos="5.10" departSpeed="0.00" departDelay="0.00" arrival="292.00" arrivalLane="A1left1_0" arrivalPos="286.40" arrivalSpeed="10.88" duration="245.00" routeLength="2080.05" waitingTime="40.00" waitingCount="4" stopTime="0.00" timeLoss="70.91" rerouteNo="0" devices="tripinfo_12" vType="DEFAULT_VEHTYPE" speedFactor="0.87" vaporized=""/>
    <tripinfo id="33" depart="148.00" departLane="right0D0_0" departPos="5.10" departSpeed="0.00" departDelay="0.00" arrival="295.00" arrivalLane="C0bottom2_0" arrivalPos="286.40" arrivalSpeed="12.99" duration="147.00" routeLength="897.72" waitingTime="66.00" waitingCount="1" stopTime="0.00" timeLoss="78.80" rerouteNo="0" devices="tripinfo_33" vType="DEFAULT_VEHTYPE" speedFactor="0.96" vaporized=""/>
    <tripinfo id="36" depart="158.00" departLane="bottom3D0_0" departPos="5.10" departSpeed="0.00" departDelay="0.00" arrival="299.00" arrivalLane="B0bottom1_0" arrivalPos="286.40" arrivalSpeed="13.96" duration="141.00" routeLength="1197.66" waitingTime="38.00" waitingCount="2" stopTime="0.00" timeLoss="56.31" rerouteNo="0" devices="tripinfo_36" vType="DEFAULT_VEHTYPE" speedFactor="1.04" vaporized=""/>
    <tripinfo id="37" depart="172.00" departLane="right2D2_0" departPos="5.10" departSpeed="0.00" departDelay="0.00" arrival="301.00" arrivalLane="C3top2_0" arrivalPos="286.40" arrivalSpeed="11.88" duration="129.00" routeLength="1179.77" waitingTime="13.00" waitingCount="2" stopTime="0.00" timeLoss="29.08" rerouteNo="0" devices="tripinfo_37" vType="DEFAULT_VEHTYPE" speedFactor="0.86" vaporized=""/>
    <tripinfo id="49" depart="210.00" departLane="bottom1B0_0" departPos="5.10" departSpeed="0.00" departDelay="0.00" arrival="301.00" arrivalLane="A0bottom0_0" arrivalPos="286.40" arrivalSpeed="12.95" duration="91.00" routeLength="894.86" waitingTime="4.00" waitingCount="1" stopTime="0.00" timeLoss="20.91" rerouteNo="0" devices="tripinfo_49" vType="DEFAULT_VEHTYPE" speedFactor="0.94" vaporized=""/>
    <tripinfo id="52" depart="224.00" departLane="left3A3_0" departPos="5.10" departSpeed="0.00" departDelay="0.00" arrival="301.00" arrivalLane="B3top1_0" arrivalPos="286.40" arrivalSpeed="12.95" duration="77.00" routeLength="897.72" waitingTime="0.00" waitingCount="0" stopTime="0.00" timeLoss="7.29" rerouteNo="0" devices="tripinfo_52" vType="DEFAULT_VEHTYPE" speedFactor="0.94" vaporized=""/>
    <tripinfo id="43" depart="184.00" departLane="top1B3_0" departPos="5.10" departSpeed="0.00" departDelay="0.00" arrival="326.00" arrivalLane="A1left1_0" arrivalPos="286.40" arrivalSpeed="13.58" duration="142.00" routeLength="1479.94" waitingTime="14.00" waitingCount="3" stopTime="0.00" timeLoss="40.13" rerouteNo="0" devices="tripinfo_43" vType="DEFAULT_VEHTYPE" speedFactor="1.06" vaporized=""/>
    <tripinfo id="38" depart="175.00" departLane="right2D2_0" departPos="5.10" departSpeed="0.00" departDelay="1.00" arrival="331.00" arrivalLane="C0bottom2_0" arrivalPos="286.40" arrivalSpeed="12.82" duration="156.00" routeLength="1495.35" waitingTime="17.00" waitingCount="2" stopTime="0.00" timeLoss="41.34" rerouteNo="0" devices="tripinfo_38" vType="DEFAULT_VEHTYPE" speedFactor="0.95" vaporized=""/>
    <tripinfo id="19" depart="81.00" departLane="left3A3_0" departPos="5.10" departSpeed="0.00" departDelay="0.00" arrival="333.00" arrivalLane="D1right1_0" arrivalPos="286.40" arrivalSpeed="14.92" duration="252.00" routeLength="2082.76" waitingTime="83.00" waitingCount="3" stopTime="0.00" timeLoss="111.58" rerouteNo="0" devices="tripinfo_19" vType="DEFAULT_VEHTYPE" speedFactor="1.08" vaporized=""/>
    <tripinfo id="53" depart="225.00" departLane="top0A3_0" departPos="5.10" departSpeed="0.00" departDelay="0.00" arrival="341.00" arrivalLane="B3top1_0" arrivalPos="286.40" arrivalSpeed="12.67" duration="116.00" routeLength="894.86" waitingTime="31.00" waitingCount="2" stopTime="0.00" timeLoss="45.83" rerouteNo="0" devices="tripinfo_53" vType="DEFAULT_VEHTYPE" speedFactor="0.94" vaporized=""/>
    <tripinfo id="64" depart="271.00" departLane="left0A0_0" departPos="5.10" departSpeed="0.00" departDelay="0.00" arrival="344.00" arrivalLane="B0bottom1_0" arrivalPos="286.40" arrivalSpeed="15.27" duration="73.00" routeLength="876.90" waitingTime="1.00" waitingCount="1" stopTime="0.00" timeLoss="17.96" rerouteNo="0" devices="tripinfo_64" vType="DEFAULT_VEHTYPE" speedFactor="1.17" vaporized=""/>
    <tripinfo id="6" depart="18.00" departLane="right0D0_0" departPos="5.10" departSpeed="0.00" departDelay="0.00" arrival="350.00" arrivalLane="A3left3_0" arrivalPos="286.40" arrivalSpeed="13.32" duration="332.00" routeLength="2382.93" waitingTime="115.00" waitingCount="6" stopTime="0.00" timeLoss="155.15" rerouteNo="0" devices="tripinfo_6" vType="DEFAULT_VEHTYPE" speedFactor="0.98" vaporized=""/>
    <tripinfo id="24" depart="96.00" departLane="top1B3_0" departPos="5.10" departSpeed="0.00" departDelay="0.00" arrival="358.00" arrivalLane="A0bottom0_0" arrivalPos="286.40" arrivalSpeed="13.86" duration="262.00" routeLength="1782.72" waitingTime="109.00" waitingCount="4" stopTime="0.00" timeLoss="141.16" rerouteNo="0" devices="tripinfo_24" vType="DEFAULT_VEHTYPE" speedFactor="1.08" vaporized=""/>
    <tripinfo id="30" depart="134.00" departLane="bottom3D0_0" departPos="5.10" departSpeed="0.00" departDelay="1.00" arrival="359.00" arrivalLane="D3top3_0" arrivalPos="286.40" arrivalSpeed="13.85" duration="225.00" routeLength="1495.58" waitingTime="85.00" waitingCount="4" stopTime="0.00" timeLoss="118.49" rerouteNo="0" devices="tripinfo_30" vType="DEFAULT_VEHTYPE" speedFactor="1.01" vaporized=""/>
    <tripinfo id="31" depart="140.00" departLane="left3A3_0" departPos="5.10" departSpeed="0.00" departDelay="0.00" arrival="359.00" arrivalLane="D2right2_1" arrivalPos="286.40" arrivalSpeed="15.71" duration="219.00" routeLength="1782.72" waitingTime="52.00" waitingCount="4" stopTime="0.00" timeLoss="104.08" rerouteNo="0" devices="tripinfo_31" vType="DEFAULT_VEHTYPE" speedFactor="1.13" vaporized=""/>
    <tripinfo id="28" depart="131.00" departLane="left3A3_0" departPos="5.10" departSpeed="0.00" departDelay="0.00" arrival="360.00" arrivalLane="D2right2_0" arrivalPos="286.40" arrivalSpeed="12.10" duration="229.00" routeLength="1782.72" waitingTime="58.00" waitingCount="5" stopTime="0.00" timeLoss="93.64" rerouteNo="0" devices="tripinfo_28" vType="DEFAULT_VEHTYPE" speedFactor="0.96" vaporized=""/>
    <tripinfo id="59" depart="242.00" departLane="top0A3_0" departPos="5.10" departSpeed="0.00" departDelay="1.00" arrival="362.00" arrivalLane="A1left1_0" arrivalPos="286.40" arrivalSpeed="13.29" duration="120.00" routeLength="1177.07" waitingTime="14.00" waitingCount="2" stopTime="0.00" timeLoss="31.93" rerouteNo="0" devices="tripinfo_59" vType="DEFAULT_VEHTYPE" speedFactor="0.97" vaporized=""/>
    <tripinfo id="11" depart="45.00" departLane="left0A0_0" departPos="5.10" departSpeed="0.00" departDelay="0.00" arrival="375.00" arrivalLane="C3top2_0" arrivalPos="286.40" arrivalSpeed="10.33" duration="330.00" routeLength="2095.69" waitingTime="108.00" waitingCount="4" stopTime="0.00" timeLoss="140.47" rerouteNo="0" devices="tripinfo_11" vType="DEFAULT_VEHTYPE" speedFactor="0.80" vaporized=""/>
    <tripinfo id="17" depart="72.00" departLane="left2A2_0" departPos="5.10" departSpeed="0.00" departDelay="0.00" arrival="375.00" arrivalLane="D1right1_0" arrivalPos="286.40" arrivalSpeed="10.56" duration="303.00" routeLength="1782.72" waitingTime="108.00" waitingCount="3" stopTime="0.00" timeLoss="136.23" rerouteNo="0" devices="tripinfo_17" vType="DEFAULT_VEHTYPE" speedFactor="0.78" vaporized=""/>
    <tripinfo id="51" depart="217.00" departLane="bottom1B0_0" departPos="5.10" departSpeed="0.00" departDelay="0.00" arrival="375.00" arrivalLane="D1right1_1" arrivalPos="286.40" arrivalSpeed="10.80" duration="158.00" routeLength="1479.94" waitingTime="12.00" waitingCount="1" stopTime="0.00" timeLoss="29.93" rerouteNo="0" devices="tripinfo_51" vType="DEFAULT_VEHTYPE" speedFactor="0.84" vaporized=""/>
    <tripinfo id="42" depart="183.00" departLane="top2C3_0" departPos="5.10" departSpeed="0.00" departDelay="0.00" arrival="380.00" arrivalLane="D0right0_0" arrivalPos="286.40" arrivalSpeed="13.99" duration="197.00" routeLength="1795.52" waitingTime="44.00" waitingCount="3" stopTime="0.00" timeLoss="71.19" rerouteNo="0" devices="tripinfo_42" vType="DEFAULT_VEHTYPE" speedFactor="1.04" vaporized=""/>
    <tripinfo id="32" depart="147.00" departLane="top1B3_0" departPos="5.10" departSpeed="0.00" departDelay="0.00" arrival="381.00" arrivalLane="C0bottom2_0" arrivalPos="286.40" arrivalSpeed="12.51" duration="234.00" routeLength="1782.59" waitingTime="61.00" waitingCount="5" stopTime="0.00" timeLoss="93.68" rerouteNo="0" devices="tripinfo_32" vType="DEFAULT_VEHTYPE" speedFactor="0.93" vaporized=""/>
    <tripinfo id="50" depart="213.00" departLane="bottom1B0_0" departPos="5.10" departSpeed="0.00" departDelay="0.00" arrival="382.00" arrivalLane="A2left2_0" arrivalPos="286.40" arrivalSpeed="12.20" duration="169.00" routeLength="1495.35" waitingTime="20.00" waitingCount="1" stopTime="0.00" timeLoss="45.42" rerouteNo="0" devices="tripinfo_50" vType="DEFAULT_VEHTYPE" speedFactor="0.88" vaporized=""/>
    <tripinfo id="71" depart="308.00" departLane="right1D1_0" departPos="5.10" departSpeed="0.00" departDelay="0.00" arrival="386.00" arrivalLane="D2right2_0" arrivalPos="286.40" arrivalSpeed="13.34" duration="78.00" routeLength="858.56" waitingTime="1.00" waitingCount="1" stopTime="0.00" timeLoss="12.89" rerouteNo="0" devices="tripinfo_71" vType="DEFAULT_VEHTYPE" speedFactor="0.97" vaporized=""/>
    <tripinfo id="29" depart="132.00" departLane="top1B3_0" departPos="5.10" departSpeed="0.00" departDelay="0.00" arrival="394.00" arrivalLane="D0right0_0" arrivalPos="286.40" arrivalSpeed="12.16" duration="262.00" routeLength="2095.69" waitingTime="78.00" waitingCount="3" stopTime="0.00" timeLoss="103.56" rerouteNo="0" devices="tripinfo_29" vType="DEFAULT_VEHTYPE" speedFactor="0.96" vaporized=""/>
    <tripinfo id="34" depart="154.00" departLane="right3D3_0" departPos="5.10" departSpeed="0.00" departDelay="0.00" arrival="402.00" arrivalLane="D0bottom3_0" arrivalPos="286.40" arrivalSpeed="11.98" duration="248.00" routeLength="1495.35" waitingTime="97.00" waitingCount="4" stopTime="0.00" timeLoss="126.21" rerouteNo="0" devices="tripinfo_34" vType="DEFAULT_VEHTYPE" speedFactor="0.89" vaporized=""/>
    <tripinfo id="65" depart="285.00" departLane="bottom3D0_0" departPos="5.10" departSpeed="0.00" departDelay="0.00" arrival="402.00" arrivalLane="B0bottom1_1" arrivalPos="286.40" arrivalSpeed="12.77" duration="117.00" routeLength="1197.66" waitingTime="11.00" waitingCount="2" stopTime="0.00" timeLoss="29.50" rerouteNo="0" devices="tripinfo_65" vType="DEFAULT_VEHTYPE" speedFactor="1.00" vaporized=""/>
    <tripinfo id="25" depart="99.00" departLane="top3D3_0" departPos="5.10" departSpeed="0.00" departDelay="0.00" arrival="403.00" arrivalLane="B0bottom1_0" arrivalPos="286.40" arrivalSpeed="12.11" duration="304.00" routeLength="2082.76" waitingTime="97.00" waitingCount="5" stopTime="0.00" timeLoss="133.61" rerouteNo="0" devices="tripinfo_25" vType="DEFAULT_VEHTYPE" speedFactor="0.89" vaporized=""/>
    <tripinfo id="54" depart="228.00" departLane="bottom2C0_0" departPos="5.10" departSpeed="0.00" departDelay="0.00" arrival="411.00" arrivalLane="D3right3_0" arrivalPos="286.40" arrivalSpeed="11.77" duration="183.00" routeLength="1780.11" waitingTime="24.00" waitingCount="2" stopTime="0.00" timeLoss="43.60" rerouteNo="0" devices="tripinfo_54" vType="DEFAULT_VEHTYPE" speedFactor="0.93" vaporized=""/>
    <tripinfo id="67" depart="300.00" departLane="top0A3_0" departPos="5.10" departSpeed="0.00" departDelay="0.00" arrival="420.00" arrivalLane="B3top1_0" arrivalPos="286.40" arrivalSpeed="13.03" duration="120.00" routeLength="894.86" waitingTime="36.00" waitingCount="2" stopTime="0.00" timeLoss="52.52" rerouteNo="0" devices="tripinfo_67" vType="DEFAULT_VEHTYPE" speedFactor="0.98" vaporized=""/>
    <tripinfo id="70" depart="308.00" departLane="top3D3_0" departPos="5.10" departSpeed="0.00" departDelay="0.00" arrival="430.00" arrivalLane="A2left2_0" arrivalPos="286.40" arrivalSpeed="16.16" duration="122.00" routeLength="1780.11" waitingTime="2.00" waitingCount="1" stopTime="0.00" timeLoss="17.00" rerouteNo="0" devices="tripinfo_70" vType="DEFAULT_VEHTYPE" speedFactor="1.23" vaporized=""/>
    <tripinfo id="46" depart="195.00" departLane="bottom2C0_0" departPos="5.10" departSpeed="0.00" departDelay="0.00" arrival="439.00" arrivalLane="B3top1_0" arrivalPos="286.40" arrivalSpeed="12.81" duration="244.00" routeLength="1782.59" waitingTime="82.00" waitingCount="4" stopTime="0.00" timeLoss="112.53" rerouteNo="0" devices="tripinfo_46" vType="DEFAULT_VEHTYPE" speedFactor="0.99" vaporized=""/>
    <tripinfo id="58" depart="239.00" departLane="top0A3_0" departPos="5.10" departSpeed="0.00" departDelay="0.00" arrival="440.00" arrivalLane="D3top3_1" arrivalPos="286.40" arrivalSpeed="14.27" duration="201.00" routeLength="1497.83" waitingTime="77.00" waitingCount="3" stopTime="0.00" timeLoss="103.03" rerouteNo="0" devices="tripinfo_58" vType="DEFAULT_VEHTYPE" speedFactor="1.12" vaporized=""/>
    <tripinfo id="60" depart="246.00" departLane="right2D2_0" departPos="5.10" departSpeed="0.00" departDelay="0.00" arrival="440.00" arrivalLane="A3top0_0" arrivalPos="286.40" arrivalSpeed="14.06" duration="194.00" routeLength="1780.11" waitingTime="42.00" waitingCount="3" stopTime="0.00" timeLoss="69.51" rerouteNo="0" devices="tripinfo_60" vType="DEFAULT_VEHTYPE" speedFactor="1.04" vaporized=""/>
    <tripinfo id="68" depart="301.00" departLane="right3D3_0" departPos="5.10" departSpeed="0.00" departDelay="0.00" arrival="443.00" arrivalLane="B3top1_0" arrivalPos="286.40" arrivalSpeed="13.05" duration="142.00" routeLength="1177.07" waitingTime="36.00" waitingCount="2" stopTime="0.00" timeLoss="55.59" rerouteNo="0" devices="tripinfo_68" vType="DEFAULT_VEHTYPE" speedFactor="0.99" vaporized=""/>
    <tripinfo id="82" depart="360.00" departLane="top3D3_0" departPos="5.10" departSpeed="0.00" departDelay="0.00" arrival="444.00" arrivalLane="C3top2_0" arrivalPos="286.40" arrivalSpeed="12.72" duration="84.00" routeLength="858.56" waitingTime="3.00" waitingCount="2" stopTime="0.00" timeLoss="18.63" rerouteNo="0" devices="tripinfo_82" vType="DEFAULT_VEHTYPE" speedFactor="0.97" vaporized=""/>
    <tripinfo id="39" depart="175.00" departLane="top3D3_0" departPos="5.10" departSpeed="0.00" departDelay="0.00" arrival="445.00" arrivalLane="D3top3_0" arrivalPos="286.40" arrivalSpeed="10.09" duration="270.00" routeLength="1748.75" waitingTime="81.00" waitingCount="4" stopTime="0.00" timeLoss="111.23" rerouteNo="0" devices="tripinfo_39" vType="DEFAULT_VEHTYPE" speedFactor="0.81" vaporized=""/>
    <tripinfo id="90" depart="387.00" departLane="left0A0_0" departPos="5.10" departSpeed="0.00" departDelay="0.00" arrival="445.00" arrivalLane="A0bottom0_0" arrivalPos="286.40" arrivalSpeed="11.93" duration="58.00" routeLength="576.73" waitingTime="1.00" waitingCount="1" stopTime="0.00" timeLoss="10.95" rerouteNo="0" devices="tripinfo_90" vType="DEFAULT_VEHTYPE" speedFactor="0.90" vaporized=""/>
    <tripinfo id="56" depart="236.00" departLane="top3D3_0" departPos="5.10" departSpeed="0.00" departDelay="0.00" arrival="458.00" arrivalLane="D0right0_0" arrivalPos="286.40" arrivalSpeed="13.24" duration="222.00" routeLength="1498.06" waitingTime="91.00" waitingCount="4" stopTime="0.00" timeLoss="117.55" rerouteNo="0" devices="tripinfo_56" vType="DEFAULT_VEHTYPE" speedFactor="1.04" vaporized=""/>
    <tripinfo id="73" depart="323.00" departLane="top0A3_0" departPos="5.10" departSpeed="0.00" departDelay="0.00" arrival="460.00" arrivalLane="D3top3_0" arrivalPos="286.40" arrivalSpeed="12.91" duration="137.00" routeLength="1497.83" waitingTime="4.00" waitingCount="1" stopTime="0.00" timeLoss="20.53" rerouteNo="0" devices="tripinfo_73" vType="DEFAULT_VEHTYPE" speedFactor="0.94" vaporized=""/>
    <tripinfo id="85" depart="372.00" departLane="top0A3_0" departPos="5.10" departSpeed="0.00" departDelay="0.00" arrival="467.00" arrivalLane="B3top1_0" arrivalPos="286.40" arrivalSpeed="15.07" duration="95.00" routeLength="894.86" waitingTime="23.00" waitingCount="1" stopTime="0.00" timeLoss="36.45" rerouteNo="0" devices="tripinfo_85" vType="DEFAULT_VEHTYPE" speedFactor="1.12" vaporized=""/>
    <tripinfo id="41" depart="183.00" departLane="top3D3_0" departPos="5.10" departSpeed="0.00" departDelay="0.00" arrival="469.00" arrivalLane="A1left1_1" arrivalPos="286.40" arrivalSpeed="15.32" duration="286.00" routeLength="2080.28" waitingTime="99.00" waitingCount="6" stopTime="0.00" timeLoss="150.29" rerouteNo="0" devices="tripinfo_41" vType="DEFAULT_VEHTYPE" speedFactor="1.11" vaporized=""/>
    <tripinfo id="26" depart="129.00" departLane="right3D3_0" departPos="5.10" departSpeed="0.00" departDelay="0.00" arrival="475.00" arrivalLane="A1left1_0" arrivalPos="286.40" arrivalSpeed="10.01" duration="346.00" routeLength="2080.05" waitingTime="118.00" waitingCount="6" stopTime="0.00" timeLoss="157.82" rerouteNo="0" devices="tripinfo_26" vType="DEFAULT_VEHTYPE" speedFactor="0.80" vaporized=""/>
    <tripinfo id="66" depart="294.00" departLane="left3A3_0" departPos="5.10" departSpeed="0.00" departDelay="0.00" arrival="479.00" arrivalLane="A0left0_0" arrivalPos="286.40" arrivalSpeed="12.28" duration="185.00" routeLength="1461.60" waitingTime="40.00" waitingCount="3" stopTime="0.00" timeLoss="65.46" rerouteNo="0" devices="tripinfo_66" vType="DEFAULT_VEHTYPE" speedFactor="0.89" vaporized=""/>
    <tripinfo id="74" depart="325.00" departLane="left0A0_0" departPos="5.10" departSpeed="0.00" departDelay="0.00" arrival="513.00" arrivalLane="A1left1_0" arrivalPos="286.40" arrivalSpeed="11.70" duration="188.00" routeLength="894.86" waitingTime="100.00" waitingCount="1" stopTime="0.00" timeLoss="111.04" rerouteNo="0" devices="tripinfo_74" vType="DEFAULT_VEHTYPE" speedFactor="0.85" vaporized=""/>
    <tripinfo id="47" depart="198.00" departLane="left0A0_0" departPos="5.10" departSpeed="0.00" departDelay="0.00" arrival="520.00" arrivalLane="D3right3_0" arrivalPos="286.40" arrivalSpeed="13.30" duration="322.00" routeLength="2380.22" waitingTime="102.00" waitingCount="6" stopTime="0.00" timeLoss="144.40" rerouteNo="0" devices="tripinfo_47" vType="DEFAULT_VEHTYPE" speedFactor="0.97" vaporized=""/>
    <tripinfo id="88" depart="381.00" departLane="left2A2_0" departPos="5.10" departSpeed="0.00" departDelay="0.00" arrival="525.00" arrivalLane="B0bottom1_0" arrivalPos="286.40" arrivalSpeed="12.88" duration="144.00" routeLength="1479.94" waitingTime="7.00" waitingCount="3" stopTime="0.00" timeLoss="29.27" rerouteNo="0" devices="tripinfo_88" vType="DEFAULT_VEHTYPE" speedFactor="0.94" vaporized=""/>
    <tripinfo id="18" depart="74.00" departLane="bottom3D0_0" departPos="5.10" departSpeed="0.00" departDelay="0.00" arrival="529.00" arrivalLane="A3left3_0" arrivalPos="286.40" arrivalSpeed="12.96" duration="455.00" routeLength="2395.86" waitingTime="232.00" waitingCount="7" stopTime="0.00" timeLoss="280.84" rerouteNo="0" devices="tripinfo_18" vType="DEFAULT_VEHTYPE" speedFactor="0.99" vaporized=""/>
    <tripinfo id="27" depart="131.00" departLane="bottom3D0_0" departPos="5.10" departSpeed="0.00" departDelay="0.00" arrival="531.00" arrivalLane="A3left3_1" arrivalPos="286.40" arrivalSpeed="15.33" duration="400.00" routeLength="2395.86" waitingTime="180.00" waitingCount="7" stopTime="0.00" timeLoss="243.99" rerouteNo="0" devices="tripinfo_27" vType="DEFAULT_VEHTYPE" speedFactor="1.11" vaporized=""/>
    <tripinfo id="35" depart="156.00" departLane="right2D2_0" departPos="5.10" departSpeed="0.00" departDelay="0.00" arrival="533.00" arrivalLane="A3left3_0" arrivalPos="286.40" arrivalSpeed="12.10" duration="377.00" routeLength="1782.72" waitingTime="196.00" waitingCount="5" stopTime="0.00" timeLoss="234.04" rerouteNo="0" devices="tripinfo_35" vType="DEFAULT_VEHTYPE" speedFactor="0.91" vaporized=""/>