<?xml version="1.0" encoding="UTF-8"?>

<!-- generated on 12/19/21 14:07:39 by Eclipse SUMO sumo Version 1.7.0
<configuration xmlns:xsi="http://www.w3.org/2001/XMLSchema-instance" xsi:noNamespaceSchemaLocation="http://sumo.dlr.de/xsd/sumoConfiguration.xsd">

    <input>
        <net-file value="C:\Users\longs\Desktop\RESCO-main\environments\grid4x4\grid4x4.net.xml"/>
        <route-files value="C:\Users\longs\Desktop\RESCO-main\environments\grid4x4\grid4x4_68.rou.xml"/>
    </input>

    <output>
        <tripinfo-output value="C:\Users\longs\Desktop\RESCO-main\logs\IDQN-tr1-grid4x4-0-drqlong-delaydiff_pressure03\tripinfo_68.xml"/>
        <tripinfo-output.write-unfinished value="true"/>
    </output>

    <processing>
        <time-to-teleport value="-1"/>
    </processing>

    <report>
        <no-warnings value="true"/>
        <no-step-log value="true"/>
    </report>

    <traci_server>
        <remote-port value="50357"/>
    </traci_server>

    <random_number>
        <random value="true"/>
    </random_number>

</configuration>
-->

<tripinfos xmlns:xsi="http://www.w3.org/2001/XMLSchema-instance" xsi:noNamespaceSchemaLocation="http://sumo.dlr.de/xsd/tripinfo_file.xsd">
    <tripinfo id="19" depart="84.00" departLane="bottom3D0_0" departPos="5.10" departSpeed="0.00" departDelay="0.00" arrival="135.00" arrivalLane="D0right0_0" arrivalPos="286.40" arrivalSpeed="14.75" duration="51.00" routeLength="576.73" waitingTime="1.00" waitingCount="1" stopTime="0.00" timeLoss="11.84" rerouteNo="0" devices="tripinfo_19" vType="DEFAULT_VEHTYPE" speedFactor="1.09" vaporized=""/>
    <tripinfo id="2" depart="7.00" departLane="top1B3_0" departPos="5.10" departSpeed="0.00" departDelay="0.00" arrival="142.00" arrivalLane="B0bottom1_0" arrivalPos="286.40" arrivalSpeed="11.94" duration="135.00" routeLength="1495.58" waitingTime="9.00" waitingCount="1" stopTime="0.00" timeLoss="21.08" rerouteNo="0" devices="tripinfo_2" vType="DEFAULT_VEHTYPE" speedFactor="0.95" vaporized=""/>
    <tripinfo id="15" depart="69.00" departLane="bottom1B0_0" departPos="5.10" departSpeed="0.00" departDelay="1.00" arrival="151.00" arrivalLane="A0left0_1" arrivalPos="286.40" arrivalSpeed="14.48" duration="82.00" routeLength="895.01" waitingTime="7.00" waitingCount="1" stopTime="0.00" timeLoss="20.85" rerouteNo="0" devices="tripinfo_15" vType="DEFAULT_VEHTYPE" speedFactor="1.06" vaporized=""/>
    <tripinfo id="8" depart="45.00" departLane="bottom1B0_0" departPos="5.10" departSpeed="0.00" departDelay="0.00" arrival="152.00" arrivalLane="A0left0_0" arrivalPos="286.40" arrivalSpeed="11.77" duration="107.00" routeLength="895.01" waitingTime="19.00" waitingCount="2" stopTime="0.00" timeLoss="34.75" rerouteNo="0" devices="tripinfo_8" vType="DEFAULT_VEHTYPE" speedFactor="0.90" vaporized=""/>
    <tripinfo id="1" depart="4.00" departLane="left1A1_0" departPos="5.10" departSpeed="0.00" departDelay="0.00" arrival="156.00" arrivalLane="B3top1_0" arrivalPos="286.40" arrivalSpeed="11.69" duration="152.00" routeLength="1495.35" waitingTime="15.00" waitingCount="1" stopTime="0.00" timeLoss="33.49" rerouteNo="0" devices="tripinfo_1" vType="DEFAULT_VEHTYPE" speedFactor="0.92" vaporized=""/>
    <tripinfo id="4" depart="17.00" departLane="bottom1B0_0" departPos="5.10" departSpeed="0.00" departDelay="0.00" arrival="160.00" arrivalLane="D1right1_0" arrivalPos="286.40" arrivalSpeed="13.11" duration="143.00" routeLength="1479.94" waitingTime="6.00" waitingCount="2" stopTime="0.00" timeLoss="30.03" rerouteNo="0" devices="tripinfo_4" vType="DEFAULT_VEHTYPE" speedFactor="0.95" vaporized=""/>
    <tripinfo id="10" depart="50.00" departLane="top1B3_0" departPos="5.10" departSpeed="0.00" departDelay="0.00" arrival="167.00" arrivalLane="A2left2_0" arrivalPos="286.40" arrivalSpeed="14.38" duration="117.00" routeLength="1179.77" waitingTime="17.00" waitingCount="2" stopTime="0.00" timeLoss="38.62" rerouteNo="0" devices="tripinfo_10" vType="DEFAULT_VEHTYPE" speedFactor="1.10" vaporized=""/>
    <tripinfo id="14" depart="66.00" departLane="bottom1B0_0" departPos="5.10" departSpeed="0.00" departDelay="0.00" arrival="171.00" arrivalLane="A0bottom0_0" arrivalPos="286.40" arrivalSpeed="12.53" duration="105.00" routeLength="894.86" waitingTime="17.00" waitingCount="2" stopTime="0.00" timeLoss="35.38" rerouteNo="0" devices="tripinfo_14" vType="DEFAULT_VEHTYPE" speedFactor="0.94" vaporized=""/>
    <tripinfo id="5" depart="27.00" departLane="right2D2_0" departPos="5.10" departSpeed="0.00" departDelay="0.00" arrival="187.00" arrivalLane="C0bottom2_0" arrivalPos="286.40" arrivalSpeed="14.93" duration="160.00" routeLength="1495.35" waitingTime="37.00" waitingCount="3" stopTime="0.00" timeLoss="63.41" rerouteNo="0" devices="tripinfo_5" vType="DEFAULT_VEHTYPE" speedFactor="1.13" vaporized=""/>
    <tripinfo id="6" depart="28.00" departLane="top2C3_0" departPos="5.10" departSpeed="0.00" departDelay="0.00" arrival="197.00" arrivalLane="D1right1_0" arrivalPos="286.40" arrivalSpeed="15.08" duration="169.00" routeLength="1495.35" waitingTime="46.00" waitingCount="3" stopTime="0.00" timeLoss="73.57" rerouteNo="0" devices="tripinfo_6" vType="DEFAULT_VEHTYPE" speedFactor="1.14" vaporized=""/>
    <tripinfo id="0" depart="3.00" departLane="bottom1B0_0" departPos="5.10" departSpeed="0.00" departDelay="0.00" arrival="200.00" arrivalLane="C3top2_0" arrivalPos="286.40" arrivalSpeed="12.56" duration="197.00" routeLength="1782.72" waitingTime="27.00" waitingCount="3" stopTime="0.00" timeLoss="62.56" rerouteNo="0" devices="tripinfo_0" vType="DEFAULT_VEHTYPE" speedFactor="0.97" vaporized=""/>
    <tripinfo id="21" depart="87.00" departLane="top2C3_0" departPos="5.10" departSpeed="0.00" departDelay="0.00" arrival="200.00" arrivalLane="D2right2_0" arrivalPos="286.40" arrivalSpeed="13.70" duration="113.00" routeLength="1195.18" waitingTime="12.00" waitingCount="2" stopTime="0.00" timeLoss="29.24" rerouteNo="0" devices="tripinfo_21" vType="DEFAULT_VEHTYPE" speedFactor="1.04" vaporized=""/>
    <tripinfo id="34" depart="155.00" departLane="bottom3D0_0" departPos="5.10" departSpeed="0.00" departDelay="0.00" arrival="203.00" arrivalLane="D0right0_0" arrivalPos="286.40" arrivalSpeed="13.63" duration="48.00" routeLength="576.73" waitingTime="0.00" waitingCount="0" stopTime="0.00" timeLoss="6.94" rerouteNo="0" devices="tripinfo_34" vType="DEFAULT_VEHTYPE" speedFactor="1.03" vaporized=""/>
    <tripinfo id="3" depart="16.00" departLane="left1A1_0" departPos="5.10" departSpeed="0.00" departDelay="0.00" arrival="204.00" arrivalLane="C3top2_0" arrivalPos="286.40" arrivalSpeed="10.83" duration="188.00" routeLength="1795.52" waitingTime="10.00" waitingCount="2" stopTime="0.00" timeLoss="39.00" rerouteNo="0" devices="tripinfo_3" vType="DEFAULT_VEHTYPE" speedFactor="0.87" vaporized=""/>
    <tripinfo id="7" depart="44.00" departLane="top1B3_0" departPos="5.10" departSpeed="0.00" departDelay="0.00" arrival="209.00" arrivalLane="B3top1_0" arrivalPos="286.40" arrivalSpeed="13.90" duration="165.00" routeLength="1748.75" waitingTime="14.00" waitingCount="3" stopTime="0.00" timeLoss="42.23" rerouteNo="0" devices="tripinfo_7" vType="DEFAULT_VEHTYPE" speedFactor="1.05" vaporized=""/>
    <tripinfo id="17" depart="77.00" departLane="left0A0_0" departPos="5.10" departSpeed="0.00" departDelay="0.00" arrival="222.00" arrivalLane="A0left0_0" arrivalPos="286.40" arrivalSpeed="14.79" duration="145.00" routeLength="1745.91" waitingTime="11.00" waitingCount="1" stopTime="0.00" timeLoss="29.84" rerouteNo="0" devices="tripinfo_17" vType="DEFAULT_VEHTYPE" speedFactor="1.12" vaporized=""/>
    <tripinfo id="13" depart="64.00" departLane="right0D0_0" departPos="5.10" departSpeed="0.00" departDelay="0.00" arrival="227.00" arrivalLane="D3top3_0" arrivalPos="286.40" arrivalSpeed="15.16" duration="163.00" routeLength="1479.94" waitingTime="47.00" waitingCount="2" stopTime="0.00" timeLoss="69.89" rerouteNo="0" devices="tripinfo_13" vType="DEFAULT_VEHTYPE" speedFactor="1.16" vaporized=""/>
    <tripinfo id="22" depart="88.00" departLane="top1B3_0" departPos="5.10" departSpeed="0.00" departDelay="0.00" arrival="229.00" arrivalLane="B0bottom1_0" arrivalPos="286.40" arrivalSpeed="12.60" duration="141.00" routeLength="1495.58" waitingTime="5.00" waitingCount="1" stopTime="0.00" timeLoss="26.43" rerouteNo="0" devices="tripinfo_22" vType="DEFAULT_VEHTYPE" speedFactor="0.95" vaporized=""/>
    <tripinfo id="16" depart="72.00" departLane="top3D3_0" departPos="5.10" departSpeed="0.00" departDelay="0.00" arrival="237.00" arrivalLane="D3top3_0" arrivalPos="286.40" arrivalSpeed="14.31" duration="165.00" routeLength="1748.75" waitingTime="19.00" waitingCount="4" stopTime="0.00" timeLoss="50.61" rerouteNo="0" devices="tripinfo_16" vType="DEFAULT_VEHTYPE" speedFactor="1.12" vaporized=""/>
    <tripinfo id="9" depart="48.00" departLane="right1D1_0" departPos="5.10" departSpeed="0.00" departDelay="0.00" arrival="240.00" arrivalLane="B3top1_0" arrivalPos="286.40" arrivalSpeed="12.61" duration="192.00" routeLength="1780.11" waitingTime="25.00" waitingCount="3" stopTime="0.00" timeLoss="57.63" rerouteNo="0" devices="tripinfo_9" vType="DEFAULT_VEHTYPE" speedFactor="0.96" vaporized=""/>
    <tripinfo id="12" depart="63.00" departLane="top1B3_0" departPos="5.10" departSpeed="0.00" departDelay="0.00" arrival="247.00" arrivalLane="C0bottom2_0" arrivalPos="286.40" arrivalSpeed="14.80" duration="184.00" routeLength="1782.59" waitingTime="32.00" waitingCount="4" stopTime="0.00" timeLoss="63.95" rerouteNo="0" devices="tripinfo_12" vType="DEFAULT_VEHTYPE" speedFactor="1.08" vaporized=""/>
    <tripinfo id="35" depart="156.00" departLane="right1D1_0" departPos="5.10" departSpeed="0.00" departDelay="0.00" arrival="247.00" arrivalLane="D0bottom3_0" arrivalPos="286.40" arrivalSpeed="14.45" duration="91.00" routeLength="895.01" waitingTime="14.00" waitingCount="2" stopTime="0.00" timeLoss="32.27" rerouteNo="0" devices="tripinfo_35" vType="DEFAULT_VEHTYPE" speedFactor="1.12" vaporized=""/>
    <tripinfo id="26" depart="121.00" departLane="bottom2C0_0" departPos="5.10" departSpeed="0.00" departDelay="0.00" arrival="251.00" arrivalLane="A0left0_0" arrivalPos="286.40" arrivalSpeed="12.02" duration="130.00" routeLength="1195.18" waitingTime="16.00" waitingCount="3" stopTime="0.00" timeLoss="36.21" rerouteNo="0" devices="tripinfo_26" vType="DEFAULT_VEHTYPE" speedFactor="0.93" vaporized=""/>
    <tripinfo id="29" depart="135.00" departLane="right3D3_0" departPos="5.10" departSpeed="0.00" departDelay="0.00" arrival="252.00" arrivalLane="D1right1_0" arrivalPos="286.40" arrivalSpeed="13.85" duration="117.00" routeLength="1197.66" waitingTime="20.00" waitingCount="1" stopTime="0.00" timeLoss="33.92" rerouteNo="0" devices="tripinfo_29" vType="DEFAULT_VEHTYPE" speedFactor="1.05" vaporized=""/>
    <tripinfo id="23" depart="90.00" departLane="left1A1_0" departPos="5.10" departSpeed="0.00" departDelay="0.00" arrival="253.00" arrivalLane="C0bottom2_0" arrivalPos="286.40" arrivalSpeed="11.79" duration="163.00" routeLength="1479.94" waitingTime="22.00" waitingCount="3" stopTime="0.00" timeLoss="46.90" rerouteNo="0" devices="tripinfo_23" vType="DEFAULT_VEHTYPE" speedFactor="0.93" vaporized=""/>
    <tripinfo id="11" depart="52.00" departLane="right3D3_0" departPos="5.10" departSpeed="0.00" departDelay="0.00" arrival="270.00" arrivalLane="B0bottom1_0" arrivalPos="286.40" arrivalSpeed="13.07" duration="218.00" routeLength="2095.69" waitingTime="41.00" waitingCount="2" stopTime="0.00" timeLoss="61.58" rerouteNo="0" devices="tripinfo_11" vType="DEFAULT_VEHTYPE" speedFactor="0.97" vaporized=""/>
    <tripinfo id="50" depart="219.00" departLane="bottom0A0_0" departPos="5.10" departSpeed="0.00" departDelay="0.00" arrival="277.00" arrivalLane="A0left0_0" arrivalPos="286.40" arrivalSpeed="15.23" duration="58.00" routeLength="597.55" waitingTime="8.00" waitingCount="1" stopTime="0.00" timeLoss="19.00" rerouteNo="0" devices="tripinfo_50" vType="DEFAULT_VEHTYPE" speedFactor="1.13" vaporized=""/>
    <tripinfo id="20" depart="87.00" departLane="right1D1_0" departPos="5.10" departSpeed="0.00" departDelay="0.00" arrival="288.00" arrivalLane="A0left0_0" arrivalPos="286.40" arrivalSpeed="13.89" duration="201.00" routeLength="1782.59" waitingTime="42.00" waitingCount="5" stopTime="0.00" timeLoss="76.85" rerouteNo="0" devices="tripinfo_20" vType="DEFAULT_VEHTYPE" speedFactor="1.04" vaporized=""/>
    <tripinfo id="18" depart="77.00" departLane="bottom0A0_0" departPos="5.10" departSpeed="0.00" departDelay="0.00" arrival="290.00" arrivalLane="D3top3_0" arrivalPos="286.40" arrivalSpeed="14.93" duration="213.00" routeLength="2382.93" waitingTime="14.00" waitingCount="4" stopTime="0.00" timeLoss="55.64" rerouteNo="0" devices="tripinfo_18" vType="DEFAULT_VEHTYPE" speedFactor="1.10" vaporized=""/>
    <tripinfo id="24" depart="104.00" departLane="bottom2C0_0" departPos="5.10" departSpeed="0.00" departDelay="0.00" arrival="295.00" arrivalLane="C3top2_0" arrivalPos="286.40" arrivalSpeed="12.12" duration="191.00" routeLength="1495.58" waitingTime="49.00" waitingCount="3" stopTime="0.00" timeLoss="76.58" rerouteNo="0" devices="tripinfo_24" vType="DEFAULT_VEHTYPE" speedFactor="0.94" vaporized=""/>
    <tripinfo id="27" depart="126.00" departLane="right2D2_0" departPos="5.10" departSpeed="0.00" departDelay="0.00" arrival="296.00" arrivalLane="A2left2_0" arrivalPos="286.40" arrivalSpeed="16.14" duration="170.00" routeLength="1495.58" waitingTime="47.00" waitingCount="4" stopTime="0.00" timeLoss="82.19" rerouteNo="0" devices="tripinfo_27" vType="DEFAULT_VEHTYPE" speedFactor="1.24" vaporized=""/>
    <tripinfo id="31" depart="149.00" departLane="bottom3D0_0" departPos="5.10" departSpeed="0.00" departDelay="0.00" arrival="302.00" arrivalLane="D3right3_0" arrivalPos="286.40" arrivalSpeed="12.43" duration="153.00" routeLength="1477.24" waitingTime="11.00" waitingCount="2" stopTime="0.00" timeLoss="35.25" rerouteNo="0" devices="tripinfo_31" vType="DEFAULT_VEHTYPE" speedFactor="0.91" vaporized=""/>
    <tripinfo id="25" depart="107.00" departLane="bottom2C0_0" departPos="5.10" departSpeed="0.00" departDelay="1.00" arrival="309.00" arrivalLane="C3top2_0" arrivalPos="286.40" arrivalSpeed="13.49" duration="202.00" routeLength="1495.58" waitingTime="56.00" waitingCount="4" stopTime="0.00" timeLoss="98.05" rerouteNo="0" devices="tripinfo_25" vType="DEFAULT_VEHTYPE" speedFactor="1.04" vaporized=""/>
    <tripinfo id="54" depart="234.00" departLane="right1D1_0" departPos="5.10" departSpeed="0.00" departDelay="0.00" arrival="310.00" arrivalLane="D0bottom3_0" arrivalPos="286.40" arrivalSpeed="13.05" duration="76.00" routeLength="895.01" waitingTime="0.00" waitingCount="0" stopTime="0.00" timeLoss="7.08" rerouteNo="0" devices="tripinfo_54" vType="DEFAULT_VEHTYPE" speedFactor="0.95" vaporized=""/>
    <tripinfo id="57" depart="254.00" departLane="top0A3_0" departPos="5.10" departSpeed="0.00" departDelay="0.00" arrival="320.00" arrivalLane="B3top1_0" arrivalPos="286.40" arrivalSpeed="14.63" duration="66.00" routeLength="894.86" waitingTime="0.00" waitingCount="0" stopTime="0.00" timeLoss="7.74" rerouteNo="0" devices="tripinfo_57" vType="DEFAULT_VEHTYPE" speedFactor="1.13" vaporized=""/>
    <tripinfo id="36" depart="166.00" departLane="top1B3_0" departPos="5.10" departSpeed="0.00" departDelay="0.00" arrival="330.00" arrivalLane="D1right1_0" arrivalPos="286.40" arrivalSpeed="13.73" duration="164.00" routeLength="1795.52" waitingTime="14.00" waitingCount="2" stopTime="0.00" timeLoss="43.26" rerouteNo="0" devices="tripinfo_36" vType="DEFAULT_VEHTYPE" speedFactor="1.08" vaporized=""/>
    <tripinfo id="59" depart="263.00" departLane="left3A3_0" departPos="5.10" departSpeed="0.00" departDelay="0.00" arrival="334.00" arrivalLane="A2left2_0" arrivalPos="286.40" arrivalSpeed="13.52" duration="71.00" routeLength="858.56" waitingTime="0.00" waitingCount="0" stopTime="0.00" timeLoss="9.66" rerouteNo="0" devices="tripinfo_59" vType="DEFAULT_VEHTYPE" speedFactor="1.03" vaporized=""/>
    <tripinfo id="44" depart="190.00" departLane="left1A1_0" departPos="5.10" departSpeed="0.00" departDelay="0.00" arrival="339.00" arrivalLane="B3top1_0" arrivalPos="286.40" arrivalSpeed="13.25" duration="149.00" routeLength="1495.35" waitingTime="20.00" waitingCount="3" stopTime="0.00" timeLoss="41.85" rerouteNo="0" devices="tripinfo_44" vType="DEFAULT_VEHTYPE" speedFactor="1.01" vaporized=""/>
    <tripinfo id="28" depart="134.00" departLane="right0D0_0" departPos="5.10" departSpeed="0.00" departDelay="0.00" arrival="342.00" arrivalLane="A1left1_0" arrivalPos="286.40" arrivalSpeed="12.02" duration="208.00" routeLength="1782.72" waitingTime="27.00" waitingCount="4" stopTime="0.00" timeLoss="62.85" rerouteNo="0" devices="tripinfo_28" vType="DEFAULT_VEHTYPE" speedFactor="0.89" vaporized=""/>
    <tripinfo id="41" depart="189.00" departLane="top1B3_0" departPos="5.10" departSpeed="0.00" departDelay="0.00" arrival="349.00" arrivalLane="B3top1_0" arrivalPos="286.40" arrivalSpeed="13.68" duration="160.00" routeLength="1748.75" waitingTime="9.00" waitingCount="3" stopTime="0.00" timeLoss="35.71" rerouteNo="0" devices="tripinfo_41" vType="DEFAULT_VEHTYPE" speedFactor="1.04" vaporized=""/>
    <tripinfo id="45" depart="195.00" departLane="left3A3_0" departPos="5.10" departSpeed="0.00" departDelay="0.00" arrival="356.00" arrivalLane="D3right3_0" arrivalPos="286.40" arrivalSpeed="11.54" duration="161.00" routeLength="1495.58" waitingTime="19.00" waitingCount="2" stopTime="0.00" timeLoss="43.49" rerouteNo="0" devices="tripinfo_45" vType="DEFAULT_VEHTYPE" speedFactor="0.92" vaporized=""/>
    <tripinfo id="46" depart="196.00" departLane="left0A0_0" departPos="5.10" departSpeed="0.00" departDelay="0.00" arrival="359.00" arrivalLane="A3left3_0" arrivalPos="286.40" arrivalSpeed="14.17" duration="163.00" routeLength="1497.83" waitingTime="31.00" waitingCount="3" stopTime="0.00" timeLoss="56.17" rerouteNo="0" devices="tripinfo_46" vType="DEFAULT_VEHTYPE" speedFactor="1.02" vaporized=""/>
    <tripinfo id="32" depart="149.00" departLane="left3A3_0" departPos="5.10" departSpeed="0.00" departDelay="0.00" arrival="360.00" arrivalLane="D0bottom3_0" arrivalPos="286.40" arrivalSpeed="13.43" duration="211.00" routeLength="2380.45" waitingTime="17.00" waitingCount="2" stopTime="0.00" timeLoss="40.91" rerouteNo="0" devices="tripinfo_32" vType="DEFAULT_VEHTYPE" speedFactor="1.02" vaporized=""/>
    <tripinfo id="42" depart="190.00" departLane="top2C3_0" departPos="5.10" departSpeed="0.00" departDelay="0.00" arrival="364.00" arrivalLane="A2left2_0" arrivalPos="286.40" arrivalSpeed="10.98" duration="174.00" routeLength="1479.94" waitingTime="21.00" waitingCount="2" stopTime="0.00" timeLoss="42.52" rerouteNo="0" devices="tripinfo_42" vType="DEFAULT_VEHTYPE" speedFactor="0.82" vaporized=""/>
    <tripinfo id="68" depart="288.00" departLane="right0D0_0" departPos="5.10" departSpeed="0.00" departDelay="0.00" arrival="373.00" arrivalLane="D1right1_0" arrivalPos="286.40" arrivalSpeed="13.96" duration="85.00" routeLength="858.56" waitingTime="6.00" waitingCount="2" stopTime="0.00" timeLoss="22.92" rerouteNo="0" devices="tripinfo_68" vType="DEFAULT_VEHTYPE" speedFactor="1.03" vaporized=""/>
    <tripinfo id="48" depart="205.00" departLane="left2A2_0" departPos="5.10" departSpeed="0.00" departDelay="0.00" arrival="375.00" arrivalLane="D3right3_0" arrivalPos="286.40" arrivalSpeed="15.43" duration="170.00" routeLength="1782.59" waitingTime="26.00" waitingCount="4" stopTime="0.00" timeLoss="58.86" rerouteNo="0" devices="tripinfo_48" vType="DEFAULT_VEHTYPE" speedFactor="1.16" vaporized=""/>
    <tripinfo id="61" depart="273.00" departLane="left1A1_0" departPos="5.10" departSpeed="0.00" departDelay="0.00" arrival="378.00" arrivalLane="A3left3_0" arrivalPos="286.40" arrivalSpeed="13.44" duration="105.00" routeLength="1197.66" waitingTime="9.00" waitingCount="1" stopTime="0.00" timeLoss="20.84" rerouteNo="0" devices="tripinfo_61" vType="DEFAULT_VEHTYPE" speedFactor="1.04" vaporized=""/>
    <tripinfo id="55" depart="243.00" departLane="left2A2_0" departPos="5.10" departSpeed="0.00" departDelay="0.00" arrival="380.00" arrivalLane="B3top1_0" arrivalPos="286.40" arrivalSpeed="12.55" duration="137.00" routeLength="1195.18" waitingTime="21.00" waitingCount="3" stopTime="0.00" timeLoss="47.24" rerouteNo="0" devices="tripinfo_55" vType="DEFAULT_VEHTYPE" speedFactor="0.97" vaporized=""/>
    <tripinfo id="37" depart="180.00" departLane="bottom2C0_0" departPos="5.10" departSpeed="0.00" departDelay="0.00" arrival="382.00" arrivalLane="B3top1_1" arrivalPos="286.40" arrivalSpeed="13.40" duration="202.00" routeLength="1782.59" waitingTime="45.00" waitingCount="4" stopTime="0.00" timeLoss="75.03" rerouteNo="0" devices="tripinfo_37" vType="DEFAULT_VEHTYPE" speedFactor="1.03" vaporized=""/>
    <tripinfo id="73" depart="310.00" departLane="left2A2_0" departPos="5.10" departSpeed="0.00" departDelay="0.00" arrival="384.00" arrivalLane="A1left1_0" arrivalPos="286.40" arrivalSpeed="13.66" duration="74.00" routeLength="858.56" waitingTime="1.00" waitingCount="1" stopTime="0.00" timeLoss="13.89" rerouteNo="0" devices="tripinfo_73" vType="DEFAULT_VEHTYPE" speedFactor="1.05" vaporized=""/>
    <tripinfo id="40" depart="186.00" departLane="right2D2_0" departPos="5.10" departSpeed="0.00" departDelay="0.00" arrival="386.00" arrivalLane="A3top0_0" arrivalPos="286.40" arrivalSpeed="10.39" duration="200.00" routeLength="1780.11" waitingTime="15.00" waitingCount="3" stopTime="0.00" timeLoss="43.50" rerouteNo="0" devices="tripinfo_40" vType="DEFAULT_VEHTYPE" speedFactor="0.82" vaporized=""/>
    <tripinfo id="39" depart="184.00" departLane="left1A1_0" departPos="5.10" departSpeed="0.00" departDelay="0.00" arrival="388.00" arrivalLane="D3top3_0" arrivalPos="286.40" arrivalSpeed="14.09" duration="204.00" routeLength="2095.69" waitingTime="34.00" waitingCount="3" stopTime="0.00" timeLoss="64.58" rerouteNo="0" devices="tripinfo_39" vType="DEFAULT_VEHTYPE" speedFactor="1.09" vaporized=""/>
    <tripinfo id="65" depart="282.00" departLane="bottom2C0_0" departPos="5.10" departSpeed="0.00" departDelay="0.00" arrival="389.00" arrivalLane="D1right1_0" arrivalPos="286.40" arrivalSpeed="13.46" duration="107.00" routeLength="1179.77" waitingTime="3.00" waitingCount="2" stopTime="0.00" timeLoss="22.02" rerouteNo="0" devices="tripinfo_65" vType="DEFAULT_VEHTYPE" speedFactor="1.01" vaporized=""/>
    <tripinfo id="58" depart="260.00" departLane="top2C3_0" departPos="5.10" departSpeed="0.00" departDelay="0.00" arrival="391.00" arrivalLane="D1right1_0" arrivalPos="286.40" arrivalSpeed="13.54" duration="131.00" routeLength="1495.35" waitingTime="2.00" waitingCount="1" stopTime="0.00" timeLoss="21.13" rerouteNo="0" devices="tripinfo_58" vType="DEFAULT_VEHTYPE" speedFactor="0.99" vaporized=""/>
    <tripinfo id="60" depart="264.00" departLane="top2C3_0" departPos="5.10" departSpeed="0.00" departDelay="0.00" arrival="392.00" arrivalLane="A3top0_0" arrivalPos="286.40" arrivalSpeed="12.35" duration="128.00" routeLength="1161.43" waitingTime="13.00" waitingCount="2" stopTime="0.00" timeLoss="31.95" rerouteNo="0" devices="tripinfo_60" vType="DEFAULT_VEHTYPE" speedFactor="0.89" vaporized=""/>
    <tripinfo id="78" depart="330.00" departLane="top2C3_0" departPos="5.10" departSpeed="0.00" departDelay="0.00" arrival="394.00" arrivalLane="B3top1_0" arrivalPos="286.40" arrivalSpeed="16.48" duration="64.00" routeLength="858.56" waitingTime="0.00" waitingCount="0" stopTime="0.00" timeLoss="10.76" rerouteNo="0" devices="tripinfo_78" vType="DEFAULT_VEHTYPE" speedFactor="1.19" vaporized=""/>
    <tripinfo id="52" depart="227.00" departLane="bottom1B0_0" departPos="5.10" departSpeed="0.00" departDelay="0.00" arrival="397.00" arrivalLane="D3top3_0" arrivalPos="286.40" arrivalSpeed="15.65" duration="170.00" routeLength="2082.76" waitingTime="12.00" waitingCount="2" stopTime="0.00" timeLoss="36.42" rerouteNo="0" devices="tripinfo_52" vType="DEFAULT_VEHTYPE" speedFactor="1.14" vaporized=""/>
    <tripinfo id="43" depart="190.00" departLane="top3D3_0" departPos="5.10" departSpeed="0.00" departDelay="0.00" arrival="399.00" arrivalLane="C0bottom2_0" arrivalPos="286.40" arrivalSpeed="13.55" duration="209.00" routeLength="1782.72" waitingTime="44.00" waitingCount="5" stopTime="0.00" timeLoss="80.69" rerouteNo="0" devices="tripinfo_43" vType="DEFAULT_VEHTYPE" speedFactor="1.01" vaporized=""/>
    <tripinfo id="33" depart="150.00" departLane="bottom0A0_0" departPos="5.10" departSpeed="0.00" departDelay="0.00" arrival="402.00" arrivalLane="D3right3_0" arrivalPos="286.40" arrivalSpeed="11.52" duration="252.00" routeLength="2380.45" waitingTime="21.00" waitingCount="4" stopTime="0.00" timeLoss="62.95" rerouteNo="0" devices="tripinfo_33" vType="DEFAULT_VEHTYPE" speedFactor="0.91" vaporized=""/>
    <tripinfo id="30" depart="147.00" departLane="top0A3_0" departPos="5.10" departSpeed="0.00" departDelay="0.00" arrival="403.00" arrivalLane="C0bottom2_0" arrivalPos="286.40" arrivalSpeed="12.16" duration="256.00" routeLength="2080.05" waitingTime="53.00" waitingCount="5" stopTime="0.00" timeLoss="90.88" rerouteNo="0" devices="tripinfo_30" vType="DEFAULT_VEHTYPE" speedFactor="0.92" vaporized=""/>
    <tripinfo id="49" depart="208.00" departLane="left2A2_0" departPos="5.10" departSpeed="0.00" departDelay="1.00" arrival="404.00" arrivalLane="C0bottom2_1" arrivalPos="286.40" arrivalSpeed="13.28" duration="196.00" routeLength="1780.11" waitingTime="19.00" waitingCount="3" stopTime="0.00" timeLoss="65.33" rerouteNo="0" devices="tripinfo_49" vType="DEFAULT_VEHTYPE" speedFactor="0.99" vaporized=""/>
    <tripinfo id="62" depart="276.00" departLane="left1A1_0" departPos="5.10" departSpeed="0.00" departDelay="2.00" arrival="406.00" arrivalLane="A2left2_0" arrivalPos="286.40" arrivalSpeed="10.59" duration="130.00" routeLength="894.86" waitingTime="30.00" waitingCount="2" stopTime="0.00" timeLoss="47.37" rerouteNo="0" devices="tripinfo_62" vType="DEFAULT_VEHTYPE" speedFactor="0.80" vaporized=""/>
    <tripinfo id="64" depart="276.00" departLane="right0D0_0" departPos="5.10" departSpeed="0.00" departDelay="0.00" arrival="415.00" arrivalLane="A0bottom0_0" arrivalPos="286.40" arrivalSpeed="17.01" duration="139.00" routeLength="1498.06" waitingTime="28.00" waitingCount="2" stopTime="0.00" timeLoss="53.72" rerouteNo="0" devices="tripinfo_64" vType="DEFAULT_VEHTYPE" speedFactor="1.28" vaporized=""/>
    <tripinfo id="47" depart="202.00" departLane="right1D1_0" departPos="5.10" departSpeed="0.00" departDelay="0.00" arrival="418.00" arrivalLane="A3left3_0" arrivalPos="286.40" arrivalSpeed="14.52" duration="216.00" routeLength="2082.76" waitingTime="38.00" waitingCount="4" stopTime="0.00" timeLoss="71.92" rerouteNo="0" devices="tripinfo_47" vType="DEFAULT_VEHTYPE" speedFactor="1.05" vaporized=""/>
    <tripinfo id="86" depart="356.00" departLane="top3D3_0" departPos="5.10" departSpeed="0.00" departDelay="0.00" arrival="419.00" arrivalLane="D3right3_0" arrivalPos="286.40" arrivalSpeed="13.18" duration="63.00" routeLength="597.55" waitingTime="10.00" waitingCount="1" stopTime="0.00" timeLoss="19.31" rerouteNo="0" devices="tripinfo_86" vType="DEFAULT_VEHTYPE" speedFactor="1.01" vaporized=""/>
    <tripinfo id="38" depart="182.00" departLane="left3A3_0" departPos="5.10" departSpeed="0.00" departDelay="0.00" arrival="424.00" arrivalLane="D0bottom3_0" arrivalPos="286.40" arrivalSpeed="12.14" duration="242.00" routeLength="2380.45" waitingTime="23.00" waitingCount="5" stopTime="0.00" timeLoss="63.58" rerouteNo="0" devices="tripinfo_38" vType="DEFAULT_VEHTYPE" speedFactor="0.97" vaporized=""/>
    <tripinfo id="53" depart="232.00" departLane="left2A2_0" departPos="5.10" departSpeed="0.00" departDelay="0.00" arrival="431.00" arrivalLane="D3right3_0" arrivalPos="286.40" arrivalSpeed="14.05" duration="199.00" routeLength="1782.59" waitingTime="40.00" waitingCount="4" stopTime="0.00" timeLoss="72.49" rerouteNo="0" devices="tripinfo_53" vType="DEFAULT_VEHTYPE" speedFactor="1.03" vaporized=""/>
    <tripinfo id="72" depart="306.00" departLane="right3D3_0" departPos="5.10" departSpeed="0.00" departDelay="0.00" arrival="433.00" arrivalLane="B3top1_0" arrivalPos="286.40" arrivalSpeed="13.64" duration="127.00" routeLength="1177.07" waitingTime="23.00" waitingCount="2" stopTime="0.00" timeLoss="42.15" rerouteNo="0" devices="tripinfo_72" vType="DEFAULT_VEHTYPE" speedFactor="1.01" vaporized=""/>
    <tripinfo id="80" depart="335.00" departLane="bottom3D0_0" departPos="5.10" departSpeed="0.00" departDelay="0.00" arrival="448.00" arrivalLane="B0bottom1_0" arrivalPos="286.40" arrivalSpeed="13.46" duration="113.00" routeLength="1197.66" waitingTime="12.00" waitingCount="1" stopTime="0.00" timeLoss="30.33" rerouteNo="0" devices="tripinfo_80" vType="DEFAULT_VEHTYPE" speedFactor="1.06" vaporized=""/>
    <tripinfo id="82" depart="340.00" departLane="left2A2_0" departPos="5.10" departSpeed="0.00" departDelay="0.00" arrival="449.00" arrivalLane="A3top0_0" arrivalPos="286.40" arrivalSpeed="14.43" duration="109.00" routeLength="895.01" waitingTime="29.00" waitingCount="2" stopTime="0.00" timeLoss="45.78" rerouteNo="0" devices="tripinfo_82" vType="DEFAULT_VEHTYPE" speedFactor="1.04" vaporized=""/>
    <tripinfo id="51" depart="226.00" departLane="bottom3D0_0" departPos="5.10" departSpeed="0.00" departDelay="0.00" arrival="468.00" arrivalLane="A3left3_0" arrivalPos="286.40" arrivalSpeed="14.11" duration="242.00" routeLength="2395.86" waitingTime="33.00" waitingCount="4" stopTime="0.00" timeLoss="76.64" rerouteNo="0" devices="tripinfo_51" vType="DEFAULT_VEHTYPE" speedFactor="1.05" vaporized=""/>