<?xml version="1.0" encoding="UTF-8"?>

<!-- generated on 12/19/21 14:26:22 by Eclipse SUMO sumo Version 1.7.0
<configuration xmlns:xsi="http://www.w3.org/2001/XMLSchema-instance" xsi:noNamespaceSchemaLocation="http://sumo.dlr.de/xsd/sumoConfiguration.xsd">

    <input>
        <net-file value="C:\Users\longs\Desktop\RESCO-main\environments\grid4x4\grid4x4.net.xml"/>
        <route-files value="C:\Users\longs\Desktop\RESCO-main\environments\grid4x4\grid4x4_88.rou.xml"/>
    </input>

    <output>
        <tripinfo-output value="C:\Users\longs\Desktop\RESCO-main\logs\IDQN-tr1-grid4x4-0-drqlong-delaydiff_pressure03\tripinfo_88.xml"/>
        <tripinfo-output.write-unfinished value="true"/>
    </output>

    <processing>
        <time-to-teleport value="-1"/>
    </processing>

    <report>
        <no-warnings value="true"/>
        <no-step-log value="true"/>
    </report>

    <traci_server>
        <remote-port value="50949"/>
    </traci_server>

    <random_number>
        <random value="true"/>
    </random_number>

</configuration>
-->

<tripinfos xmlns:xsi="http://www.w3.org/2001/XMLSchema-instance" xsi:noNamespaceSchemaLocation="http://sumo.dlr.de/xsd/tripinfo_file.xsd">
    <tripinfo id="5" depart="38.00" departLane="right3D3_0" departPos="5.10" departSpeed="0.00" departDelay="0.00" arrival="126.00" arrivalLane="D2right2_0" arrivalPos="286.40" arrivalSpeed="15.18" duration="88.00" routeLength="894.86" waitingTime="15.00" waitingCount="2" stopTime="0.00" timeLoss="31.35" rerouteNo="0" devices="tripinfo_5" vType="DEFAULT_VEHTYPE" speedFactor="1.17" vaporized=""/>
    <tripinfo id="8" depart="51.00" departLane="top2C3_0" departPos="5.10" departSpeed="0.00" departDelay="0.00" arrival="145.00" arrivalLane="A3top0_0" arrivalPos="286.40" arrivalSpeed="14.80" duration="94.00" routeLength="1161.43" waitingTime="2.00" waitingCount="2" stopTime="0.00" timeLoss="19.37" rerouteNo="0" devices="tripinfo_8" vType="DEFAULT_VEHTYPE" speedFactor="1.14" vaporized=""/>
    <tripinfo id="2" depart="10.00" departLane="bottom3D0_0" departPos="5.10" departSpeed="0.00" departDelay="0.00" arrival="152.00" arrivalLane="A0left0_0" arrivalPos="286.40" arrivalSpeed="12.96" duration="142.00" routeLength="1495.35" waitingTime="14.00" waitingCount="2" stopTime="0.00" timeLoss="31.82" rerouteNo="0" devices="tripinfo_2" vType="DEFAULT_VEHTYPE" speedFactor="0.98" vaporized=""/>
    <tripinfo id="0" depart="7.00" departLane="top0A3_0" departPos="5.10" departSpeed="0.00" departDelay="0.00" arrival="170.00" arrivalLane="A3top0_0" arrivalPos="286.40" arrivalSpeed="13.31" duration="163.00" routeLength="1745.91" waitingTime="11.00" waitingCount="3" stopTime="0.00" timeLoss="35.39" rerouteNo="0" devices="tripinfo_0" vType="DEFAULT_VEHTYPE" speedFactor="1.01" vaporized=""/>
    <tripinfo id="1" depart="8.00" departLane="right0D0_0" departPos="5.10" departSpeed="0.00" departDelay="0.00" arrival="170.00" arrivalLane="A0bottom0_0" arrivalPos="286.40" arrivalSpeed="12.75" duration="162.00" routeLength="1498.06" waitingTime="21.00" waitingCount="4" stopTime="0.00" timeLoss="47.07" rerouteNo="0" devices="tripinfo_1" vType="DEFAULT_VEHTYPE" speedFactor="0.94" vaporized=""/>
    <tripinfo id="6" depart="45.00" departLane="right2D2_0" departPos="5.10" departSpeed="0.00" departDelay="0.00" arrival="179.00" arrivalLane="D0right0_0" arrivalPos="286.40" arrivalSpeed="13.84" duration="134.00" routeLength="1197.66" waitingTime="27.00" waitingCount="3" stopTime="0.00" timeLoss="50.09" rerouteNo="0" devices="tripinfo_6" vType="DEFAULT_VEHTYPE" speedFactor="1.05" vaporized=""/>
    <tripinfo id="12" depart="64.00" departLane="top3D3_0" departPos="5.10" departSpeed="0.00" departDelay="0.00" arrival="179.00" arrivalLane="D1right1_0" arrivalPos="286.40" arrivalSpeed="12.40" duration="115.00" routeLength="1197.89" waitingTime="11.00" waitingCount="1" stopTime="0.00" timeLoss="22.72" rerouteNo="0" devices="tripinfo_12" vType="DEFAULT_VEHTYPE" speedFactor="0.94" vaporized=""/>
    <tripinfo id="15" depart="92.00" departLane="left2A2_0" departPos="5.10" departSpeed="0.00" departDelay="0.00" arrival="196.00" arrivalLane="A0bottom0_0" arrivalPos="286.40" arrivalSpeed="15.22" duration="104.00" routeLength="1179.77" waitingTime="13.00" waitingCount="2" stopTime="0.00" timeLoss="28.49" rerouteNo="0" devices="tripinfo_15" vType="DEFAULT_VEHTYPE" speedFactor="1.14" vaporized=""/>
    <tripinfo id="4" depart="32.00" departLane="left3A3_0" departPos="5.10" departSpeed="0.00" departDelay="0.00" arrival="206.00" arrivalLane="A3left3_0" arrivalPos="286.40" arrivalSpeed="11.60" duration="174.00" routeLength="1748.75" waitingTime="13.00" waitingCount="2" stopTime="0.00" timeLoss="34.40" rerouteNo="0" devices="tripinfo_4" vType="DEFAULT_VEHTYPE" speedFactor="0.92" vaporized=""/>
    <tripinfo id="21" depart="123.00" departLane="right3D3_0" departPos="5.10" departSpeed="0.00" departDelay="0.00" arrival="212.00" arrivalLane="D2right2_0" arrivalPos="286.40" arrivalSpeed="12.85" duration="89.00" routeLength="894.86" waitingTime="13.00" waitingCount="1" stopTime="0.00" timeLoss="23.95" rerouteNo="0" devices="tripinfo_21" vType="DEFAULT_VEHTYPE" speedFactor="1.02" vaporized=""/>
    <tripinfo id="10" depart="56.00" departLane="bottom0A0_0" departPos="5.10" departSpeed="0.00" departDelay="0.00" arrival="213.00" arrivalLane="A3top0_0" arrivalPos="286.40" arrivalSpeed="12.68" duration="157.00" routeLength="1495.58" waitingTime="27.00" waitingCount="2" stopTime="0.00" timeLoss="45.94" rerouteNo="0" devices="tripinfo_10" vType="DEFAULT_VEHTYPE" speedFactor="0.97" vaporized=""/>
    <tripinfo id="9" depart="53.00" departLane="bottom2C0_0" departPos="5.10" departSpeed="0.00" departDelay="0.00" arrival="230.00" arrivalLane="C0bottom2_0" arrivalPos="286.40" arrivalSpeed="13.18" duration="177.00" routeLength="1748.75" waitingTime="15.00" waitingCount="5" stopTime="0.00" timeLoss="49.20" rerouteNo="0" devices="tripinfo_9" vType="DEFAULT_VEHTYPE" speedFactor="1.00" vaporized=""/>
    <tripinfo id="14" depart="86.00" departLane="top2C3_0" departPos="5.10" departSpeed="0.00" departDelay="0.00" arrival="236.00" arrivalLane="D1right1_0" arrivalPos="286.40" arrivalSpeed="14.84" duration="150.00" routeLength="1495.35" waitingTime="26.00" waitingCount="4" stopTime="0.00" timeLoss="55.06" rerouteNo="0" devices="tripinfo_14" vType="DEFAULT_VEHTYPE" speedFactor="1.14" vaporized=""/>
    <tripinfo id="3" depart="25.00" departLane="left2A2_0" departPos="5.10" departSpeed="0.00" departDelay="0.00" arrival="241.00" arrivalLane="D0right0_0" arrivalPos="286.40" arrivalSpeed="12.15" duration="216.00" routeLength="2082.76" waitingTime="28.00" waitingCount="3" stopTime="0.00" timeLoss="53.21" rerouteNo="0" devices="tripinfo_3" vType="DEFAULT_VEHTYPE" speedFactor="0.93" vaporized=""/>
    <tripinfo id="30" depart="167.00" departLane="top1B3_0" departPos="5.10" departSpeed="0.00" departDelay="0.00" arrival="253.00" arrivalLane="A3top0_0" arrivalPos="286.40" arrivalSpeed="11.54" duration="86.00" routeLength="858.56" waitingTime="1.00" waitingCount="1" stopTime="0.00" timeLoss="14.60" rerouteNo="0" devices="tripinfo_30" vType="DEFAULT_VEHTYPE" speedFactor="0.88" vaporized=""/>
    <tripinfo id="7" depart="47.00" departLane="left3A3_0" departPos="5.10" departSpeed="0.00" departDelay="0.00" arrival="257.00" arrivalLane="C0bottom2_0" arrivalPos="286.40" arrivalSpeed="12.22" duration="210.00" routeLength="2080.28" waitingTime="7.00" waitingCount="1" stopTime="0.00" timeLoss="42.36" rerouteNo="0" devices="tripinfo_7" vType="DEFAULT_VEHTYPE" speedFactor="0.90" vaporized=""/>
    <tripinfo id="37" depart="200.00" departLane="bottom0A0_0" departPos="5.10" departSpeed="0.00" departDelay="0.00" arrival="259.00" arrivalLane="A0left0_0" arrivalPos="286.40" arrivalSpeed="13.38" duration="59.00" routeLength="597.55" waitingTime="6.00" waitingCount="1" stopTime="0.00" timeLoss="16.09" rerouteNo="0" devices="tripinfo_37" vType="DEFAULT_VEHTYPE" speedFactor="1.03" vaporized=""/>
    <tripinfo id="13" depart="80.00" departLane="top1B3_0" departPos="5.10" departSpeed="0.00" departDelay="0.00" arrival="264.00" arrivalLane="D1right1_0" arrivalPos="286.40" arrivalSpeed="12.40" duration="184.00" routeLength="1795.52" waitingTime="25.00" waitingCount="3" stopTime="0.00" timeLoss="46.18" rerouteNo="0" devices="tripinfo_13" vType="DEFAULT_VEHTYPE" speedFactor="0.94" vaporized=""/>
    <tripinfo id="11" depart="58.00" departLane="right1D1_0" departPos="5.10" departSpeed="0.00" departDelay="0.00" arrival="272.00" arrivalLane="A0left0_0" arrivalPos="286.40" arrivalSpeed="11.32" duration="214.00" routeLength="1782.59" waitingTime="37.00" waitingCount="4" stopTime="0.00" timeLoss="67.08" rerouteNo="0" devices="tripinfo_11" vType="DEFAULT_VEHTYPE" speedFactor="0.88" vaporized=""/>
    <tripinfo id="29" depart="159.00" departLane="left3A3_0" departPos="5.10" departSpeed="0.00" departDelay="0.00" arrival="274.00" arrivalLane="B3top1_0" arrivalPos="286.40" arrivalSpeed="11.48" duration="115.00" routeLength="897.72" waitingTime="23.00" waitingCount="2" stopTime="0.00" timeLoss="37.24" rerouteNo="0" devices="tripinfo_29" vType="DEFAULT_VEHTYPE" speedFactor="0.84" vaporized=""/>
    <tripinfo id="17" depart="102.00" departLane="right2D2_0" departPos="5.10" departSpeed="0.00" departDelay="0.00" arrival="276.00" arrivalLane="A3left3_0" arrivalPos="286.40" arrivalSpeed="15.51" duration="174.00" routeLength="1782.72" waitingTime="29.00" waitingCount="4" stopTime="0.00" timeLoss="59.80" rerouteNo="0" devices="tripinfo_17" vType="DEFAULT_VEHTYPE" speedFactor="1.13" vaporized=""/>
    <tripinfo id="35" depart="188.00" departLane="left3A3_0" departPos="5.10" departSpeed="0.00" departDelay="0.00" arrival="277.00" arrivalLane="B3top1_0" arrivalPos="286.40" arrivalSpeed="12.14" duration="89.00" routeLength="897.72" waitingTime="6.00" waitingCount="1" stopTime="0.00" timeLoss="17.20" rerouteNo="0" devices="tripinfo_35" vType="DEFAULT_VEHTYPE" speedFactor="0.91" vaporized=""/>
    <tripinfo id="34" depart="188.00" departLane="left1A1_0" departPos="5.10" departSpeed="0.00" departDelay="0.00" arrival="294.00" arrivalLane="A3left3_0" arrivalPos="286.40" arrivalSpeed="17.12" duration="106.00" routeLength="1197.66" waitingTime="13.00" waitingCount="2" stopTime="0.00" timeLoss="35.66" rerouteNo="0" devices="tripinfo_34" vType="DEFAULT_VEHTYPE" speedFactor="1.24" vaporized=""/>
    <tripinfo id="27" depart="153.00" departLane="top1B3_0" departPos="5.10" departSpeed="0.00" departDelay="0.00" arrival="296.00" arrivalLane="B3top1_0" arrivalPos="286.40" arrivalSpeed="15.64" duration="143.00" routeLength="1748.75" waitingTime="7.00" waitingCount="3" stopTime="0.00" timeLoss="32.10" rerouteNo="0" devices="tripinfo_27" vType="DEFAULT_VEHTYPE" speedFactor="1.16" vaporized=""/>
    <tripinfo id="26" depart="144.00" departLane="right0D0_0" departPos="5.10" departSpeed="0.00" departDelay="0.00" arrival="298.00" arrivalLane="D3top3_0" arrivalPos="286.40" arrivalSpeed="13.97" duration="154.00" routeLength="1479.94" waitingTime="21.00" waitingCount="4" stopTime="0.00" timeLoss="54.10" rerouteNo="0" devices="tripinfo_26" vType="DEFAULT_VEHTYPE" speedFactor="1.08" vaporized=""/>
    <tripinfo id="19" depart="115.00" departLane="left2A2_0" departPos="5.10" departSpeed="0.00" departDelay="0.00" arrival="303.00" arrivalLane="C3top2_0" arrivalPos="286.40" arrivalSpeed="11.38" duration="188.00" routeLength="1495.35" waitingTime="32.00" waitingCount="4" stopTime="0.00" timeLoss="60.19" rerouteNo="0" devices="tripinfo_19" vType="DEFAULT_VEHTYPE" speedFactor="0.85" vaporized=""/>
    <tripinfo id="32" depart="180.00" departLane="right1D1_0" departPos="5.10" departSpeed="0.00" departDelay="0.00" arrival="305.00" arrivalLane="D3top3_0" arrivalPos="286.40" arrivalSpeed="11.18" duration="125.00" routeLength="1179.77" waitingTime="10.00" waitingCount="2" stopTime="0.00" timeLoss="26.59" rerouteNo="0" devices="tripinfo_32" vType="DEFAULT_VEHTYPE" speedFactor="0.87" vaporized=""/>
    <tripinfo id="16" depart="94.00" departLane="left3A3_0" departPos="5.10" departSpeed="0.00" departDelay="0.00" arrival="306.00" arrivalLane="C0bottom2_0" arrivalPos="286.40" arrivalSpeed="15.02" duration="212.00" routeLength="2080.28" waitingTime="39.00" waitingCount="5" stopTime="0.00" timeLoss="77.95" rerouteNo="0" devices="tripinfo_16" vType="DEFAULT_VEHTYPE" speedFactor="1.13" vaporized=""/>
    <tripinfo id="22" depart="126.00" departLane="bottom0A0_0" departPos="5.10" departSpeed="0.00" departDelay="0.00" arrival="317.00" arrivalLane="B3top1_0" arrivalPos="286.40" arrivalSpeed="13.53" duration="191.00" routeLength="1782.72" waitingTime="36.00" waitingCount="5" stopTime="0.00" timeLoss="69.85" rerouteNo="0" devices="tripinfo_22" vType="DEFAULT_VEHTYPE" speedFactor="1.07" vaporized=""/>
    <tripinfo id="38" depart="204.00" departLane="right1D1_0" departPos="5.10" departSpeed="0.00" departDelay="0.00" arrival="322.00" arrivalLane="D3top3_0" arrivalPos="286.40" arrivalSpeed="12.18" duration="118.00" routeLength="1179.77" waitingTime="6.00" waitingCount="1" stopTime="0.00" timeLoss="20.02" rerouteNo="0" devices="tripinfo_38" vType="DEFAULT_VEHTYPE" speedFactor="0.88" vaporized=""/>
    <tripinfo id="42" depart="235.00" departLane="left3A3_0" departPos="5.10" departSpeed="0.00" departDelay="0.00" arrival="326.00" arrivalLane="C3top2_0" arrivalPos="286.40" arrivalSpeed="15.45" duration="91.00" routeLength="1197.89" waitingTime="4.00" waitingCount="1" stopTime="0.00" timeLoss="16.88" rerouteNo="0" devices="tripinfo_42" vType="DEFAULT_VEHTYPE" speedFactor="1.17" vaporized=""/>
    <tripinfo id="20" depart="121.00" departLane="left2A2_0" departPos="5.10" departSpeed="0.00" departDelay="0.00" arrival="329.00" arrivalLane="D0right0_0" arrivalPos="286.40" arrivalSpeed="13.50" duration="208.00" routeLength="2082.76" waitingTime="20.00" waitingCount="3" stopTime="0.00" timeLoss="58.61" rerouteNo="0" devices="tripinfo_20" vType="DEFAULT_VEHTYPE" speedFactor="1.01" vaporized=""/>
    <tripinfo id="33" depart="183.00" departLane="right1D1_0" departPos="5.10" departSpeed="0.00" departDelay="0.00" arrival="334.00" arrivalLane="A0bottom0_0" arrivalPos="286.40" arrivalSpeed="18.15" duration="151.00" routeLength="1795.52" waitingTime="22.00" waitingCount="3" stopTime="0.00" timeLoss="54.63" rerouteNo="0" devices="tripinfo_33" vType="DEFAULT_VEHTYPE" speedFactor="1.36" vaporized=""/>
    <tripinfo id="24" depart="140.00" departLane="bottom3D0_0" departPos="5.10" departSpeed="0.00" departDelay="0.00" arrival="337.00" arrivalLane="A3top0_0" arrivalPos="286.40" arrivalSpeed="15.29" duration="197.00" routeLength="2380.22" waitingTime="18.00" waitingCount="2" stopTime="0.00" timeLoss="41.85" rerouteNo="0" devices="tripinfo_24" vType="DEFAULT_VEHTYPE" speedFactor="1.12" vaporized=""/>
    <tripinfo id="25" depart="142.00" departLane="left2A2_0" departPos="5.10" departSpeed="0.00" departDelay="0.00" arrival="339.00" arrivalLane="D3right3_0" arrivalPos="286.40" arrivalSpeed="12.94" duration="197.00" routeLength="1782.59" waitingTime="32.00" waitingCount="5" stopTime="0.00" timeLoss="67.88" rerouteNo="0" devices="tripinfo_25" vType="DEFAULT_VEHTYPE" speedFactor="1.01" vaporized=""/>
    <tripinfo id="18" depart="106.00" departLane="top3D3_0" departPos="5.10" departSpeed="0.00" departDelay="0.00" arrival="350.00" arrivalLane="A0bottom0_0" arrivalPos="286.40" arrivalSpeed="12.28" duration="244.00" routeLength="2382.93" waitingTime="31.00" waitingCount="5" stopTime="0.00" timeLoss="64.63" rerouteNo="0" devices="tripinfo_18" vType="DEFAULT_VEHTYPE" speedFactor="0.96" vaporized=""/>
    <tripinfo id="31" depart="175.00" departLane="left3A3_0" departPos="5.10" departSpeed="0.00" departDelay="0.00" arrival="350.00" arrivalLane="A3left3_0" arrivalPos="286.40" arrivalSpeed="12.29" duration="175.00" routeLength="1748.75" waitingTime="3.00" waitingCount="3" stopTime="0.00" timeLoss="36.82" rerouteNo="0" devices="tripinfo_31" vType="DEFAULT_VEHTYPE" speedFactor="0.93" vaporized=""/>
    <tripinfo id="23" depart="131.00" departLane="top3D3_0" departPos="5.10" departSpeed="0.00" departDelay="0.00" arrival="356.00" arrivalLane="A1left1_0" arrivalPos="286.40" arrivalSpeed="11.93" duration="225.00" routeLength="2080.28" waitingTime="24.00" waitingCount="2" stopTime="0.00" timeLoss="60.99" rerouteNo="0" devices="tripinfo_23" vType="DEFAULT_VEHTYPE" speedFactor="0.92" vaporized=""/>
    <tripinfo id="36" depart="196.00" departLane="left1A1_0" departPos="5.10" departSpeed="0.00" departDelay="0.00" arrival="357.00" arrivalLane="D0bottom3_0" arrivalPos="286.40" arrivalSpeed="14.48" duration="161.00" routeLength="1780.11" waitingTime="20.00" waitingCount="2" stopTime="0.00" timeLoss="41.37" rerouteNo="0" devices="tripinfo_36" vType="DEFAULT_VEHTYPE" speedFactor="1.08" vaporized=""/>
    <tripinfo id="46" depart="263.00" departLane="left0A0_0" departPos="5.10" departSpeed="0.00" departDelay="0.00" arrival="358.00" arrivalLane="C0bottom2_0" arrivalPos="286.40" arrivalSpeed="13.93" duration="95.00" routeLength="1177.07" waitingTime="1.00" waitingCount="1" stopTime="0.00" timeLoss="13.42" rerouteNo="0" devices="tripinfo_46" vType="DEFAULT_VEHTYPE" speedFactor="1.06" vaporized=""/>
    <tripinfo id="55" depart="293.00" departLane="left2A2_0" departPos="5.10" departSpeed="0.00" departDelay="0.00" arrival="367.00" arrivalLane="A3top0_0" arrivalPos="286.40" arrivalSpeed="14.42" duration="74.00" routeLength="895.01" waitingTime="2.00" waitingCount="1" stopTime="0.00" timeLoss="16.07" rerouteNo="0" devices="tripinfo_55" vType="DEFAULT_VEHTYPE" speedFactor="1.13" vaporized=""/>
    <tripinfo id="28" depart="156.00" departLane="bottom1B0_0" departPos="5.10" departSpeed="0.00" departDelay="0.00" arrival="369.00" arrivalLane="D3top3_0" arrivalPos="286.40" arrivalSpeed="13.26" duration="213.00" routeLength="2082.76" waitingTime="27.00" waitingCount="5" stopTime="0.00" timeLoss="62.09" rerouteNo="0" devices="tripinfo_28" vType="DEFAULT_VEHTYPE" speedFactor="1.00" vaporized=""/>
    <tripinfo id="60" depart="327.00" departLane="bottom3D0_0" departPos="5.10" departSpeed="0.00" departDelay="0.00" arrival="370.00" arrivalLane="D0right0_0" arrivalPos="286.40" arrivalSpeed="15.98" duration="43.00" routeLength="576.73" waitingTime="0.00" waitingCount="0" stopTime="0.00" timeLoss="6.09" rerouteNo="0" devices="tripinfo_60" vType="DEFAULT_VEHTYPE" speedFactor="1.18" vaporized=""/>
    <tripinfo id="43" depart="242.00" departLane="bottom3D0_0" departPos="5.10" departSpeed="0.00" departDelay="0.00" arrival="371.00" arrivalLane="A0left0_0" arrivalPos="286.40" arrivalSpeed="13.68" duration="129.00" routeLength="1495.35" waitingTime="13.00" waitingCount="1" stopTime="0.00" timeLoss="24.81" rerouteNo="0" devices="tripinfo_43" vType="DEFAULT_VEHTYPE" speedFactor="1.04" vaporized=""/>
    <tripinfo id="45" depart="257.00" departLane="top1B3_0" departPos="5.10" departSpeed="0.00" departDelay="0.00" arrival="377.00" arrivalLane="A2left2_0" arrivalPos="286.40" arrivalSpeed="13.71" duration="120.00" routeLength="1179.77" waitingTime="21.00" waitingCount="2" stopTime="0.00" timeLoss="40.42" rerouteNo="0" devices="tripinfo_45" vType="DEFAULT_VEHTYPE" speedFactor="1.08" vaporized=""/>
    <tripinfo id="39" depart="215.00" departLane="left0A0_0" departPos="5.10" departSpeed="0.00" departDelay="0.00" arrival="387.00" arrivalLane="A0left0_0" arrivalPos="286.40" arrivalSpeed="14.70" duration="172.00" routeLength="1745.91" waitingTime="24.00" waitingCount="4" stopTime="0.00" timeLoss="58.32" rerouteNo="0" devices="tripinfo_39" vType="DEFAULT_VEHTYPE" speedFactor="1.13" vaporized=""/>
    <tripinfo id="54" depart="291.00" departLane="right0D0_0" departPos="5.10" departSpeed="0.00" departDelay="0.00" arrival="403.00" arrivalLane="A0left0_0" arrivalPos="286.40" arrivalSpeed="16.07" duration="112.00" routeLength="1495.58" waitingTime="8.00" waitingCount="1" stopTime="0.00" timeLoss="22.52" rerouteNo="0" devices="tripinfo_54" vType="DEFAULT_VEHTYPE" speedFactor="1.21" vaporized=""/>
    <tripinfo id="41" depart="220.00" departLane="bottom1B0_0" departPos="5.10" departSpeed="0.00" departDelay="0.00" arrival="418.00" arrivalLane="A3left3_0" arrivalPos="286.40" arrivalSpeed="14.09" duration="198.00" routeLength="1795.52" waitingTime="42.00" waitingCount="4" stopTime="0.00" timeLoss="70.70" rerouteNo="0" devices="tripinfo_41" vType="DEFAULT_VEHTYPE" speedFactor="1.02" vaporized=""/>
    <tripinfo id="48" depart="276.00" departLane="bottom3D0_0" departPos="5.10" departSpeed="0.00" departDelay="0.00" arrival="420.00" arrivalLane="D0bottom3_1" arrivalPos="286.40" arrivalSpeed="13.68" duration="144.00" routeLength="1745.91" waitingTime="1.00" waitingCount="1" stopTime="0.00" timeLoss="20.86" rerouteNo="0" devices="tripinfo_48" vType="DEFAULT_VEHTYPE" speedFactor="1.04" vaporized=""/>
    <tripinfo id="58" depart="314.00" departLane="right1D1_0" departPos="5.10" departSpeed="0.00" departDelay="0.00" arrival="424.00" arrivalLane="D0bottom3_0" arrivalPos="286.40" arrivalSpeed="11.23" duration="110.00" routeLength="895.01" waitingTime="12.00" waitingCount="2" stopTime="0.00" timeLoss="29.80" rerouteNo="0" devices="tripinfo_58" vType="DEFAULT_VEHTYPE" speedFactor="0.81" vaporized=""/>
    <tripinfo id="40" depart="218.00" departLane="top0A3_0" departPos="5.10" departSpeed="0.00" departDelay="0.00" arrival="446.00" arrivalLane="D0bottom3_0" arrivalPos="286.40" arrivalSpeed="14.57" duration="228.00" routeLength="2380.22" waitingTime="39.00" waitingCount="4" stopTime="0.00" timeLoss="74.97" rerouteNo="0" devices="tripinfo_40" vType="DEFAULT_VEHTYPE" speedFactor="1.13" vaporized=""/>
    <tripinfo id="53" depart="289.00" departLane="bottom1B0_0" departPos="5.10" departSpeed="0.00" departDelay="0.00" arrival="449.00" arrivalLane="B0bottom1_0" arrivalPos="286.40" arrivalSpeed="13.33" duration="160.00" routeLength="1748.75" waitingTime="12.00" waitingCount="2" stopTime="0.00" timeLoss="32.11" rerouteNo="0" devices="tripinfo_53" vType="DEFAULT_VEHTYPE" speedFactor="1.01" vaporized=""/>
    <tripinfo id="57" depart="312.00" departLane="left1A1_0" departPos="5.10" departSpeed="0.00" departDelay="0.00" arrival="460.00" arrivalLane="C0bottom2_0" arrivalPos="286.40" arrivalSpeed="12.17" duration="148.00" routeLength="1479.94" waitingTime="12.00" waitingCount="3" stopTime="0.00" timeLoss="35.52" rerouteNo="0" devices="tripinfo_57" vType="DEFAULT_VEHTYPE" speedFactor="0.96" vaporized=""/>
    <tripinfo id="50" depart="279.00" departLane="bottom2C0_0" departPos="5.10" departSpeed="0.00" departDelay="0.00" arrival="462.00" arrivalLane="D3right3_0" arrivalPos="286.40" arrivalSpeed="13.66" duration="183.00" routeLength="1780.11" waitingTime="23.00" waitingCount="4" stopTime="0.00" timeLoss="51.53" rerouteNo="0" devices="tripinfo_50" vType="DEFAULT_VEHTYPE" speedFactor="0.98" vaporized=""/>
    <tripinfo id="69" depart="382.00" departLane="bottom3D0_0" departPos="5.10" departSpeed="0.00" departDelay="0.00" arrival="465.00" arrivalLane="D1right1_0" arrivalPos="286.40" arrivalSpeed="11.63" duration="83.00" routeLength="876.90" waitingTime="1.00" waitingCount="1" stopTime="0.00" timeLoss="11.39" rerouteNo="0" devices="tripinfo_69" vType="DEFAULT_VEHTYPE" speedFactor="0.90" vaporized=""/>
    <tripinfo id="72" depart="396.00" departLane="right1D1_0" departPos="5.10" departSpeed="0.00" departDelay="0.00" arrival="469.00" arrivalLane="D2right2_0" arrivalPos="286.40" arrivalSpeed="14.44" duration="73.00" routeLength="858.56" waitingTime="1.00" waitingCount="1" stopTime="0.00" timeLoss="13.24" rerouteNo="0" devices="tripinfo_72" vType="DEFAULT_VEHTYPE" speedFactor="1.07" vaporized=""/>
    <tripinfo id="65" depart="360.00" departLane="right1D1_0" departPos="5.10" departSpeed="0.00" departDelay="0.00" arrival="474.00" arrivalLane="D0right0_0" arrivalPos="286.40" arrivalSpeed="11.33" duration="114.00" routeLength="894.86" waitingTime="20.00" waitingCount="2" stopTime="0.00" timeLoss="36.06" rerouteNo="0" devices="tripinfo_65" vType="DEFAULT_VEHTYPE" speedFactor="0.84" vaporized=""/>
    <tripinfo id="71" depart="391.00" departLane="right2D2_0" departPos="5.10" departSpeed="0.00" departDelay="0.00" arrival="474.00" arrivalLane="D3right3_0" arrivalPos="286.40" arrivalSpeed="12.88" duration="83.00" routeLength="858.56" waitingTime="2.00" waitingCount="2" stopTime="0.00" timeLoss="18.48" rerouteNo="0" devices="tripinfo_71" vType="DEFAULT_VEHTYPE" speedFactor="0.98" vaporized=""/>
    <tripinfo id="51" depart="286.00" departLane="right1D1_0" departPos="5.10" departSpeed="0.00" departDelay="0.00" arrival="477.00" arrivalLane="B3top1_0" arrivalPos="286.40" arrivalSpeed="9.66" duration="191.00" routeLength="1780.11" waitingTime="4.00" waitingCount="1" stopTime="0.00" timeLoss="21.89" rerouteNo="0" devices="tripinfo_51" vType="DEFAULT_VEHTYPE" speedFactor="0.76" vaporized=""/>
    <tripinfo id="52" depart="289.00" departLane="right1D1_0" departPos="5.10" departSpeed="0.00" departDelay="1.00" arrival="492.00" arrivalLane="A3left3_0" arrivalPos="286.40" arrivalSpeed="12.50" duration="203.00" routeLength="2082.76" waitingTime="5.00" waitingCount="2" stopTime="0.00" timeLoss="35.37" rerouteNo="0" devices="tripinfo_52" vType="DEFAULT_VEHTYPE" speedFactor="0.91" vaporized=""/>
    <tripinfo id="70" depart="390.00" departLane="bottom1B0_0" departPos="5.10" departSpeed="0.00" departDelay="0.00" arrival="499.00" arrivalLane="A0bottom0_0" arrivalPos="286.40" arrivalSpeed="13.33" duration="109.00" routeLength="894.86" waitingTime="27.00" waitingCount="2" stopTime="0.00" timeLoss="42.57" rerouteNo="0" devices="tripinfo_70" vType="DEFAULT_VEHTYPE" speedFactor="0.98" vaporized=""/>
    <tripinfo id="56" depart="301.00" departLane="bottom2C0_0" departPos="5.10" departSpeed="0.00" departDelay="0.00" arrival="504.00" arrivalLane="A3top0_0" arrivalPos="286.40" arrivalSpeed="12.76" duration="203.00" routeLength="2080.05" waitingTime="19.00" waitingCount="3" stopTime="0.00" timeLoss="48.86" rerouteNo="0" devices="tripinfo_56" vType="DEFAULT_VEHTYPE" speedFactor="0.98" vaporized=""/>
    <tripinfo id="74" depart="410.00" departLane="left1A1_0" departPos="5.10" departSpeed="0.00" departDelay="0.00" arrival="509.00" arrivalLane="A0bottom0_0" arrivalPos="286.40" arrivalSpeed="12.74" duration="99.00" routeLength="879.60" waitingTime="18.00" waitingCount="2" stopTime="0.00" timeLoss="34.67" rerouteNo="0" devices="tripinfo_74" vType="DEFAULT_VEHTYPE" speedFactor="1.00" vaporized=""/>
    <tripinfo id="81" depart="437.00" departLane="bottom1B0_0" departPos="5.10" departSpeed="0.00" departDelay="0.00" arrival="517.00" arrivalLane="C0bottom2_0" arrivalPos="286.40" arrivalSpeed="13.20" duration="80.00" routeLength="858.56" waitingTime="2.00" waitingCount="2" stopTime="0.00" timeLoss="19.76" rerouteNo="0" devices="tripinfo_81" vType="DEFAULT_VEHTYPE" speedFactor="1.04" vaporized=""/>
    <tripinfo id="73" depart="403.00" departLane="bottom0A0_0" departPos="5.10" departSpeed="0.00" departDelay="0.00" arrival="519.00" arrivalLane="A3left3_0" arrivalPos="286.40" arrivalSpeed="14.71" duration="116.00" routeLength="1498.06" waitingTime="3.00" waitingCount="1" stopTime="0.00" timeLoss="16.92" rerouteNo="0" devices="tripinfo_73" vType="DEFAULT_VEHTYPE" speedFactor="1.10" vaporized=""/>
    <tripinfo id="76" depart="417.00" departLane="top0A3_0" departPos="5.10" departSpeed="0.00" departDelay="0.00" arrival="524.00" arrivalLane="A1left1_0" arrivalPos="286.40" arrivalSpeed="13.28" duration="107.00" routeLength="1177.07" waitingTime="8.00" waitingCount="1" stopTime="0.00" timeLoss="22.10" rerouteNo="0" devices="tripinfo_76" vType="DEFAULT_VEHTYPE" speedFactor="1.02" vaporized=""/>
    <tripinfo id="92" depart="458.00" departLane="right3D3_0" departPos="5.10" departSpeed="0.00" departDelay="0.00" arrival="525.00" arrivalLane="C3top2_0" arrivalPos="286.40" arrivalSpeed="14.58" duration="67.00" routeLength="876.90" waitingTime="0.00" waitingCount="0" stopTime="0.00" timeLoss="7.66" rerouteNo="0" devices="tripinfo_92" vType="DEFAULT_VEHTYPE" speedFactor="1.09" vaporized=""/>
    <tripinfo id="61" depart="330.00" departLane="bottom3D0_0" departPos="5.10" departSpeed="0.00" departDelay="1.00" arrival="527.00" arrivalLane="B3top1_0" arrivalPos="286.40" arrivalSpeed="14.09" duration="197.00" routeLength="2080.05" waitingTime="28.00" waitingCount="4" stopTime="0.00" timeLoss="60.31" rerouteNo="0" devices="tripinfo_61" vType="DEFAULT_VEHTYPE" speedFactor="1.11" vaporized=""/>
    <tripinfo id="44" depart="245.00" departLane="left3A3_0" departPos="5.10" departSpeed="0.00" departDelay="0.00" arrival="533.00" arrivalLane="D0bottom3_0" arrivalPos="286.40" arrivalSpeed="10.70" duration="288.00" routeLength="2380.45" waitingTime="45.00" waitingCount="5" stopTime="0.00" timeLoss="85.01" rerouteNo="0" devices="tripinfo_44" vType="DEFAULT_VEHTYPE" speedFactor="0.85" vaporized=""/>
    <tripinfo id="79" depart="425.00" departLane="left1A1_0" departPos="5.10" departSpeed="0.00" departDelay="0.00" arrival="536.00" arrivalLane="D1right1_0" arrivalPos="286.40" arrivalSpeed="15.22" duration="111.00" routeLength="1495.58" waitingTime="3.00" waitingCount="1" stopTime="0.00" timeLoss="16.22" rerouteNo="0" devices="tripinfo_79" vType="DEFAULT_VEHTYPE" speedFactor="1.14" vaporized=""/>
    <tripinfo id="95" depart="463.00" departLane="left2A2_0" departPos="5.10" departSpeed="0.00" departDelay="0.00" arrival="536.00" arrivalLane="A3top0_0" arrivalPos="286.40" arrivalSpeed="15.61" duration="73.00" routeLength="895.01" waitingTime="5.00" waitingCount="1" stopTime="0.00" timeLoss="16.87" rerouteNo="0" devices="tripinfo_95" vType="DEFAULT_VEHTYPE" speedFactor="1.17" vaporized=""/>