<?xml version="1.0" encoding="UTF-8"?>

<!-- generated on 12/19/21 13:47:04 by Eclipse SUMO sumo Version 1.7.0
<configuration xmlns:xsi="http://www.w3.org/2001/XMLSchema-instance" xsi:noNamespaceSchemaLocation="http://sumo.dlr.de/xsd/sumoConfiguration.xsd">

    <input>
        <net-file value="C:\Users\longs\Desktop\RESCO-main\environments\grid4x4\grid4x4.net.xml"/>
        <route-files value="C:\Users\longs\Desktop\RESCO-main\environments\grid4x4\grid4x4_46.rou.xml"/>
    </input>

    <output>
        <tripinfo-output value="C:\Users\longs\Desktop\RESCO-main\logs\IDQN-tr1-grid4x4-0-drqlong-delaydiff_pressure03\tripinfo_46.xml"/>
        <tripinfo-output.write-unfinished value="true"/>
    </output>

    <processing>
        <time-to-teleport value="-1"/>
    </processing>

    <report>
        <no-warnings value="true"/>
        <no-step-log value="true"/>
    </report>

    <traci_server>
        <remote-port value="49728"/>
    </traci_server>

    <random_number>
        <random value="true"/>
    </random_number>

</configuration>
-->

<tripinfos xmlns:xsi="http://www.w3.org/2001/XMLSchema-instance" xsi:noNamespaceSchemaLocation="http://sumo.dlr.de/xsd/tripinfo_file.xsd">
    <tripinfo id="4" depart="14.00" departLane="bottom2C0_0" departPos="5.10" departSpeed="0.00" departDelay="0.00" arrival="94.00" arrivalLane="D0bottom3_0" arrivalPos="286.40" arrivalSpeed="14.32" duration="80.00" routeLength="858.56" waitingTime="2.00" waitingCount="2" stopTime="0.00" timeLoss="18.83" rerouteNo="0" devices="tripinfo_4" vType="DEFAULT_VEHTYPE" speedFactor="1.04" vaporized=""/>
    <tripinfo id="7" depart="37.00" departLane="top3D3_0" departPos="5.10" departSpeed="0.00" departDelay="0.00" arrival="118.00" arrivalLane="C3top2_0" arrivalPos="286.40" arrivalSpeed="12.20" duration="81.00" routeLength="858.56" waitingTime="1.00" waitingCount="1" stopTime="0.00" timeLoss="13.21" rerouteNo="0" devices="tripinfo_7" vType="DEFAULT_VEHTYPE" speedFactor="0.93" vaporized=""/>
    <tripinfo id="2" depart="10.00" departLane="left2A2_0" departPos="5.10" departSpeed="0.00" departDelay="0.00" arrival="147.00" arrivalLane="B0bottom1_0" arrivalPos="286.40" arrivalSpeed="15.25" duration="137.00" routeLength="1479.94" waitingTime="22.00" waitingCount="2" stopTime="0.00" timeLoss="40.66" rerouteNo="0" devices="tripinfo_2" vType="DEFAULT_VEHTYPE" speedFactor="1.12" vaporized=""/>
    <tripinfo id="13" depart="69.00" departLane="left2A2_0" departPos="5.10" departSpeed="0.00" departDelay="0.00" arrival="153.00" arrivalLane="A1left1_0" arrivalPos="286.40" arrivalSpeed="11.91" duration="84.00" routeLength="858.56" waitingTime="1.00" waitingCount="1" stopTime="0.00" timeLoss="12.69" rerouteNo="0" devices="tripinfo_13" vType="DEFAULT_VEHTYPE" speedFactor="0.89" vaporized=""/>
    <tripinfo id="1" depart="3.00" departLane="left3A3_0" departPos="5.10" departSpeed="0.00" departDelay="0.00" arrival="156.00" arrivalLane="A1left1_0" arrivalPos="286.40" arrivalSpeed="12.13" duration="153.00" routeLength="1161.43" waitingTime="44.00" waitingCount="2" stopTime="0.00" timeLoss="61.37" rerouteNo="0" devices="tripinfo_1" vType="DEFAULT_VEHTYPE" speedFactor="0.93" vaporized=""/>
    <tripinfo id="3" depart="13.00" departLane="left2A2_0" departPos="5.10" departSpeed="0.00" departDelay="0.00" arrival="171.00" arrivalLane="B3top1_0" arrivalPos="286.40" arrivalSpeed="11.02" duration="158.00" routeLength="1195.18" waitingTime="39.00" waitingCount="2" stopTime="0.00" timeLoss="57.60" rerouteNo="0" devices="tripinfo_3" vType="DEFAULT_VEHTYPE" speedFactor="0.86" vaporized=""/>
    <tripinfo id="19" depart="94.00" departLane="top3D3_0" departPos="5.10" departSpeed="0.00" departDelay="0.00" arrival="171.00" arrivalLane="C3top2_0" arrivalPos="286.40" arrivalSpeed="12.55" duration="77.00" routeLength="858.56" waitingTime="1.00" waitingCount="1" stopTime="0.00" timeLoss="13.00" rerouteNo="0" devices="tripinfo_19" vType="DEFAULT_VEHTYPE" speedFactor="0.99" vaporized=""/>
    <tripinfo id="5" depart="33.00" departLane="bottom3D0_0" departPos="5.10" departSpeed="0.00" departDelay="0.00" arrival="173.00" arrivalLane="C3top2_0" arrivalPos="286.40" arrivalSpeed="13.49" duration="140.00" routeLength="1782.59" waitingTime="1.00" waitingCount="1" stopTime="0.00" timeLoss="13.89" rerouteNo="0" devices="tripinfo_5" vType="DEFAULT_VEHTYPE" speedFactor="1.03" vaporized=""/>
    <tripinfo id="6" depart="34.00" departLane="top0A3_0" departPos="5.10" departSpeed="0.00" departDelay="0.00" arrival="174.00" arrivalLane="A0left0_0" arrivalPos="286.40" arrivalSpeed="15.11" duration="140.00" routeLength="1477.24" waitingTime="20.00" waitingCount="3" stopTime="0.00" timeLoss="46.51" rerouteNo="0" devices="tripinfo_6" vType="DEFAULT_VEHTYPE" speedFactor="1.15" vaporized=""/>
    <tripinfo id="20" depart="96.00" departLane="bottom1B0_0" departPos="5.10" departSpeed="0.00" departDelay="0.00" arrival="188.00" arrivalLane="A0bottom0_0" arrivalPos="286.40" arrivalSpeed="14.28" duration="92.00" routeLength="894.86" waitingTime="17.00" waitingCount="1" stopTime="0.00" timeLoss="29.04" rerouteNo="0" devices="tripinfo_20" vType="DEFAULT_VEHTYPE" speedFactor="1.04" vaporized=""/>
    <tripinfo id="11" depart="61.00" departLane="top1B3_0" departPos="5.10" departSpeed="0.00" departDelay="0.00" arrival="189.00" arrivalLane="A2left2_0" arrivalPos="286.40" arrivalSpeed="13.22" duration="128.00" routeLength="1179.77" waitingTime="20.00" waitingCount="3" stopTime="0.00" timeLoss="44.01" rerouteNo="0" devices="tripinfo_11" vType="DEFAULT_VEHTYPE" speedFactor="1.02" vaporized=""/>
    <tripinfo id="14" depart="71.00" departLane="top3D3_0" departPos="5.10" departSpeed="0.00" departDelay="0.00" arrival="190.00" arrivalLane="D1right1_0" arrivalPos="286.40" arrivalSpeed="13.23" duration="119.00" routeLength="1197.89" waitingTime="9.00" waitingCount="2" stopTime="0.00" timeLoss="28.13" rerouteNo="0" devices="tripinfo_14" vType="DEFAULT_VEHTYPE" speedFactor="0.96" vaporized=""/>
    <tripinfo id="12" depart="61.00" departLane="top3D3_0" departPos="5.10" departSpeed="0.00" departDelay="0.00" arrival="195.00" arrivalLane="D0bottom3_0" arrivalPos="286.40" arrivalSpeed="15.60" duration="134.00" routeLength="1495.58" waitingTime="18.00" waitingCount="3" stopTime="0.00" timeLoss="41.98" rerouteNo="0" devices="tripinfo_12" vType="DEFAULT_VEHTYPE" speedFactor="1.18" vaporized=""/>
    <tripinfo id="10" depart="60.00" departLane="right2D2_0" departPos="5.10" departSpeed="0.00" departDelay="0.00" arrival="196.00" arrivalLane="B3top1_0" arrivalPos="286.40" arrivalSpeed="11.53" duration="136.00" routeLength="1479.94" waitingTime="1.00" waitingCount="1" stopTime="0.00" timeLoss="15.96" rerouteNo="0" devices="tripinfo_10" vType="DEFAULT_VEHTYPE" speedFactor="0.89" vaporized=""/>
    <tripinfo id="0" depart="2.00" departLane="top1B3_0" departPos="5.10" departSpeed="0.00" departDelay="0.00" arrival="200.00" arrivalLane="D0bottom3_0" arrivalPos="286.40" arrivalSpeed="14.81" duration="198.00" routeLength="2080.05" waitingTime="33.00" waitingCount="3" stopTime="0.00" timeLoss="60.48" rerouteNo="0" devices="tripinfo_0" vType="DEFAULT_VEHTYPE" speedFactor="1.10" vaporized=""/>
    <tripinfo id="17" depart="89.00" departLane="bottom1B0_0" departPos="5.10" departSpeed="0.00" departDelay="0.00" arrival="204.00" arrivalLane="D0bottom3_0" arrivalPos="286.40" arrivalSpeed="13.97" duration="115.00" routeLength="1161.43" waitingTime="15.00" waitingCount="3" stopTime="0.00" timeLoss="37.62" rerouteNo="0" devices="tripinfo_17" vType="DEFAULT_VEHTYPE" speedFactor="1.10" vaporized=""/>
    <tripinfo id="23" depart="113.00" departLane="bottom3D0_0" departPos="5.10" departSpeed="0.00" departDelay="0.00" arrival="254.00" arrivalLane="A0left0_0" arrivalPos="286.40" arrivalSpeed="12.89" duration="141.00" routeLength="1495.35" waitingTime="13.00" waitingCount="1" stopTime="0.00" timeLoss="27.01" rerouteNo="0" devices="tripinfo_23" vType="DEFAULT_VEHTYPE" speedFactor="0.95" vaporized=""/>
    <tripinfo id="9" depart="59.00" departLane="top0A3_0" departPos="5.10" departSpeed="0.00" departDelay="0.00" arrival="256.00" arrivalLane="D0bottom3_0" arrivalPos="286.40" arrivalSpeed="15.10" duration="197.00" routeLength="2380.22" waitingTime="16.00" waitingCount="3" stopTime="0.00" timeLoss="50.24" rerouteNo="0" devices="tripinfo_9" vType="DEFAULT_VEHTYPE" speedFactor="1.18" vaporized=""/>
    <tripinfo id="21" depart="98.00" departLane="top0A3_0" departPos="5.10" departSpeed="0.00" departDelay="0.00" arrival="256.00" arrivalLane="A3top0_0" arrivalPos="286.40" arrivalSpeed="14.84" duration="158.00" routeLength="1745.91" waitingTime="21.00" waitingCount="3" stopTime="0.00" timeLoss="47.67" rerouteNo="0" devices="tripinfo_21" vType="DEFAULT_VEHTYPE" speedFactor="1.16" vaporized=""/>
    <tripinfo id="28" depart="157.00" departLane="top2C3_0" departPos="5.10" departSpeed="0.00" departDelay="0.00" arrival="265.00" arrivalLane="D3right3_0" arrivalPos="286.40" arrivalSpeed="16.40" duration="108.00" routeLength="895.01" waitingTime="42.00" waitingCount="1" stopTime="0.00" timeLoss="52.47" rerouteNo="0" devices="tripinfo_28" vType="DEFAULT_VEHTYPE" speedFactor="1.19" vaporized=""/>
    <tripinfo id="40" depart="199.00" departLane="top2C3_0" departPos="5.10" departSpeed="0.00" departDelay="0.00" arrival="272.00" arrivalLane="D3right3_0" arrivalPos="286.40" arrivalSpeed="13.32" duration="73.00" routeLength="895.01" waitingTime="0.00" waitingCount="0" stopTime="0.00" timeLoss="10.10" rerouteNo="0" devices="tripinfo_40" vType="DEFAULT_VEHTYPE" speedFactor="1.03" vaporized=""/>
    <tripinfo id="32" depart="165.00" departLane="top0A3_0" departPos="5.10" departSpeed="0.00" departDelay="0.00" arrival="275.00" arrivalLane="A1left1_0" arrivalPos="286.40" arrivalSpeed="14.50" duration="110.00" routeLength="1177.07" waitingTime="13.00" waitingCount="2" stopTime="0.00" timeLoss="29.05" rerouteNo="0" devices="tripinfo_32" vType="DEFAULT_VEHTYPE" speedFactor="1.05" vaporized=""/>
    <tripinfo id="8" depart="55.00" departLane="right0D0_0" departPos="5.10" departSpeed="0.00" departDelay="0.00" arrival="276.00" arrivalLane="A2left2_0" arrivalPos="286.40" arrivalSpeed="15.11" duration="221.00" routeLength="2082.76" waitingTime="60.00" waitingCount="3" stopTime="0.00" timeLoss="88.54" rerouteNo="0" devices="tripinfo_8" vType="DEFAULT_VEHTYPE" speedFactor="1.15" vaporized=""/>
    <tripinfo id="26" depart="132.00" departLane="bottom0A0_0" departPos="5.10" departSpeed="0.00" departDelay="0.00" arrival="287.00" arrivalLane="A3top0_0" arrivalPos="286.40" arrivalSpeed="14.24" duration="155.00" routeLength="1495.58" waitingTime="22.00" waitingCount="2" stopTime="0.00" timeLoss="57.57" rerouteNo="0" devices="tripinfo_26" vType="DEFAULT_VEHTYPE" speedFactor="1.11" vaporized=""/>
    <tripinfo id="16" depart="80.00" departLane="bottom2C0_0" departPos="5.10" departSpeed="0.00" departDelay="0.00" arrival="290.00" arrivalLane="A3top0_0" arrivalPos="286.40" arrivalSpeed="14.39" duration="210.00" routeLength="2080.05" waitingTime="39.00" waitingCount="3" stopTime="0.00" timeLoss="67.52" rerouteNo="0" devices="tripinfo_16" vType="DEFAULT_VEHTYPE" speedFactor="1.06" vaporized=""/>
    <tripinfo id="24" depart="116.00" departLane="bottom0A0_0" departPos="5.10" departSpeed="0.00" departDelay="0.00" arrival="290.00" arrivalLane="A3left3_0" arrivalPos="286.40" arrivalSpeed="12.50" duration="174.00" routeLength="1498.06" waitingTime="32.00" waitingCount="3" stopTime="0.00" timeLoss="61.49" rerouteNo="0" devices="tripinfo_24" vType="DEFAULT_VEHTYPE" speedFactor="0.97" vaporized=""/>
    <tripinfo id="36" depart="185.00" departLane="bottom2C0_0" departPos="5.10" departSpeed="0.00" departDelay="0.00" arrival="293.00" arrivalLane="A0left0_0" arrivalPos="286.40" arrivalSpeed="14.15" duration="108.00" routeLength="1195.18" waitingTime="11.00" waitingCount="1" stopTime="0.00" timeLoss="23.12" rerouteNo="0" devices="tripinfo_36" vType="DEFAULT_VEHTYPE" speedFactor="1.03" vaporized=""/>
    <tripinfo id="37" depart="192.00" departLane="top0A3_0" departPos="5.10" departSpeed="0.00" departDelay="0.00" arrival="295.00" arrivalLane="A2left2_0" arrivalPos="286.40" arrivalSpeed="11.75" duration="103.00" routeLength="876.90" waitingTime="23.00" waitingCount="1" stopTime="0.00" timeLoss="35.05" rerouteNo="0" devices="tripinfo_37" vType="DEFAULT_VEHTYPE" speedFactor="0.94" vaporized=""/>
    <tripinfo id="31" depart="163.00" departLane="left1A1_0" departPos="5.10" departSpeed="0.00" departDelay="0.00" arrival="297.00" arrivalLane="A2left2_1" arrivalPos="286.40" arrivalSpeed="15.95" duration="134.00" routeLength="894.86" waitingTime="60.00" waitingCount="2" stopTime="0.00" timeLoss="76.83" rerouteNo="0" devices="tripinfo_31" vType="DEFAULT_VEHTYPE" speedFactor="1.16" vaporized=""/>
    <tripinfo id="25" depart="119.00" departLane="bottom0A0_0" departPos="5.10" departSpeed="0.00" departDelay="2.00" arrival="298.00" arrivalLane="D1right1_0" arrivalPos="286.40" arrivalSpeed="13.31" duration="179.00" routeLength="1780.11" waitingTime="23.00" waitingCount="3" stopTime="0.00" timeLoss="54.39" rerouteNo="0" devices="tripinfo_25" vType="DEFAULT_VEHTYPE" speedFactor="1.04" vaporized=""/>
    <tripinfo id="30" depart="161.00" departLane="top0A3_0" departPos="5.10" departSpeed="0.00" departDelay="0.00" arrival="307.00" arrivalLane="D3right3_0" arrivalPos="286.40" arrivalSpeed="14.99" duration="146.00" routeLength="1495.35" waitingTime="21.00" waitingCount="3" stopTime="0.00" timeLoss="46.07" rerouteNo="0" devices="tripinfo_30" vType="DEFAULT_VEHTYPE" speedFactor="1.08" vaporized=""/>
    <tripinfo id="42" depart="215.00" departLane="top0A3_0" departPos="5.10" departSpeed="0.00" departDelay="0.00" arrival="319.00" arrivalLane="B3top1_0" arrivalPos="286.40" arrivalSpeed="13.61" duration="104.00" routeLength="894.86" waitingTime="23.00" waitingCount="1" stopTime="0.00" timeLoss="39.44" rerouteNo="0" devices="tripinfo_42" vType="DEFAULT_VEHTYPE" speedFactor="1.02" vaporized=""/>
    <tripinfo id="34" depart="173.00" departLane="left3A3_0" departPos="5.10" departSpeed="0.00" departDelay="0.00" arrival="321.00" arrivalLane="C3top2_0" arrivalPos="286.40" arrivalSpeed="12.55" duration="148.00" routeLength="1197.89" waitingTime="32.00" waitingCount="2" stopTime="0.00" timeLoss="55.37" rerouteNo="0" devices="tripinfo_34" vType="DEFAULT_VEHTYPE" speedFactor="0.94" vaporized=""/>
    <tripinfo id="15" depart="72.00" departLane="left3A3_0" departPos="5.10" departSpeed="0.00" departDelay="0.00" arrival="324.00" arrivalLane="D0bottom3_0" arrivalPos="286.40" arrivalSpeed="11.40" duration="252.00" routeLength="2380.45" waitingTime="16.00" waitingCount="2" stopTime="0.00" timeLoss="48.26" rerouteNo="0" devices="tripinfo_15" vType="DEFAULT_VEHTYPE" speedFactor="0.85" vaporized=""/>
    <tripinfo id="18" depart="93.00" departLane="right1D1_0" departPos="5.10" departSpeed="0.00" departDelay="0.00" arrival="329.00" arrivalLane="B3top1_0" arrivalPos="286.40" arrivalSpeed="13.59" duration="236.00" routeLength="1780.11" waitingTime="78.00" waitingCount="4" stopTime="0.00" timeLoss="107.63" rerouteNo="0" devices="tripinfo_18" vType="DEFAULT_VEHTYPE" speedFactor="1.01" vaporized=""/>
    <tripinfo id="46" depart="243.00" departLane="top3D3_0" departPos="5.10" departSpeed="0.00" departDelay="0.00" arrival="330.00" arrivalLane="D2right2_0" arrivalPos="286.40" arrivalSpeed="12.14" duration="87.00" routeLength="897.72" waitingTime="0.00" waitingCount="0" stopTime="0.00" timeLoss="19.33" rerouteNo="0" devices="tripinfo_46" vType="DEFAULT_VEHTYPE" speedFactor="0.97" vaporized=""/>
    <tripinfo id="38" depart="197.00" departLane="left3A3_0" departPos="5.10" departSpeed="0.00" departDelay="0.00" arrival="335.00" arrivalLane="A0left0_0" arrivalPos="286.40" arrivalSpeed="14.16" duration="138.00" routeLength="1461.60" waitingTime="14.00" waitingCount="3" stopTime="0.00" timeLoss="39.99" rerouteNo="0" devices="tripinfo_38" vType="DEFAULT_VEHTYPE" speedFactor="1.09" vaporized=""/>
    <tripinfo id="44" depart="231.00" departLane="bottom0A0_0" departPos="5.10" departSpeed="0.00" departDelay="0.00" arrival="348.00" arrivalLane="C0bottom2_0" arrivalPos="286.40" arrivalSpeed="11.02" duration="117.00" routeLength="1161.43" waitingTime="5.00" waitingCount="1" stopTime="0.00" timeLoss="20.13" rerouteNo="0" devices="tripinfo_44" vType="DEFAULT_VEHTYPE" speedFactor="0.88" vaporized=""/>
    <tripinfo id="58" depart="287.00" departLane="left2A2_0" departPos="5.10" departSpeed="0.00" departDelay="0.00" arrival="359.00" arrivalLane="A1left1_0" arrivalPos="286.40" arrivalSpeed="13.03" duration="72.00" routeLength="858.56" waitingTime="0.00" waitingCount="0" stopTime="0.00" timeLoss="10.44" rerouteNo="0" devices="tripinfo_58" vType="DEFAULT_VEHTYPE" speedFactor="1.02" vaporized=""/>
    <tripinfo id="57" depart="278.00" departLane="left3A3_0" departPos="5.10" departSpeed="0.00" departDelay="0.00" arrival="363.00" arrivalLane="A2left2_0" arrivalPos="286.40" arrivalSpeed="12.29" duration="85.00" routeLength="858.56" waitingTime="1.00" waitingCount="1" stopTime="0.00" timeLoss="14.49" rerouteNo="0" devices="tripinfo_57" vType="DEFAULT_VEHTYPE" speedFactor="0.90" vaporized=""/>
    <tripinfo id="29" depart="160.00" departLane="left2A2_0" departPos="5.10" departSpeed="0.00" departDelay="0.00" arrival="368.00" arrivalLane="D3right3_0" arrivalPos="286.40" arrivalSpeed="14.67" duration="208.00" routeLength="1782.59" waitingTime="49.00" waitingCount="5" stopTime="0.00" timeLoss="87.21" rerouteNo="0" devices="tripinfo_29" vType="DEFAULT_VEHTYPE" speedFactor="1.07" vaporized=""/>
    <tripinfo id="47" depart="252.00" departLane="left3A3_0" departPos="5.10" departSpeed="0.00" departDelay="0.00" arrival="369.00" arrivalLane="A0left0_0" arrivalPos="286.40" arrivalSpeed="14.84" duration="117.00" routeLength="1461.60" waitingTime="0.00" waitingCount="0" stopTime="0.00" timeLoss="17.46" rerouteNo="0" devices="tripinfo_47" vType="DEFAULT_VEHTYPE" speedFactor="1.07" vaporized=""/>
    <tripinfo id="35" depart="175.00" departLane="right2D2_0" departPos="5.10" departSpeed="0.00" departDelay="0.00" arrival="371.00" arrivalLane="D2right2_0" arrivalPos="286.40" arrivalSpeed="12.70" duration="196.00" routeLength="1748.75" waitingTime="30.00" waitingCount="3" stopTime="0.00" timeLoss="56.91" rerouteNo="0" devices="tripinfo_35" vType="DEFAULT_VEHTYPE" speedFactor="0.92" vaporized=""/>
    <tripinfo id="50" depart="263.00" departLane="top0A3_0" departPos="5.10" departSpeed="0.00" departDelay="0.00" arrival="381.00" arrivalLane="B3top1_0" arrivalPos="286.40" arrivalSpeed="12.50" duration="118.00" routeLength="894.86" waitingTime="32.00" waitingCount="2" stopTime="0.00" timeLoss="48.54" rerouteNo="0" devices="tripinfo_50" vType="DEFAULT_VEHTYPE" speedFactor="0.95" vaporized=""/>
    <tripinfo id="55" depart="271.00" departLane="right3D3_0" departPos="5.10" departSpeed="0.00" departDelay="0.00" arrival="386.00" arrivalLane="C3top2_0" arrivalPos="286.40" arrivalSpeed="10.08" duration="115.00" routeLength="876.90" waitingTime="22.00" waitingCount="2" stopTime="0.00" timeLoss="35.68" rerouteNo="0" devices="tripinfo_55" vType="DEFAULT_VEHTYPE" speedFactor="0.81" vaporized=""/>
    <tripinfo id="22" depart="111.00" departLane="left3A3_0" departPos="5.10" departSpeed="0.00" departDelay="0.00" arrival="390.00" arrivalLane="D0bottom3_0" arrivalPos="286.40" arrivalSpeed="14.10" duration="279.00" routeLength="2380.45" waitingTime="72.00" waitingCount="5" stopTime="0.00" timeLoss="115.97" rerouteNo="0" devices="tripinfo_22" vType="DEFAULT_VEHTYPE" speedFactor="1.06" vaporized=""/>
    <tripinfo id="43" depart="222.00" departLane="top2C3_0" departPos="5.10" departSpeed="0.00" departDelay="0.00" arrival="391.00" arrivalLane="D2right2_0" arrivalPos="286.40" arrivalSpeed="12.18" duration="169.00" routeLength="1195.18" waitingTime="52.00" waitingCount="3" stopTime="0.00" timeLoss="75.14" rerouteNo="0" devices="tripinfo_43" vType="DEFAULT_VEHTYPE" speedFactor="0.93" vaporized=""/>
    <tripinfo id="49" depart="256.00" departLane="top2C3_0" departPos="5.10" departSpeed="0.00" departDelay="0.00" arrival="397.00" arrivalLane="D1right1_0" arrivalPos="286.40" arrivalSpeed="14.63" duration="141.00" routeLength="1495.35" waitingTime="17.00" waitingCount="2" stopTime="0.00" timeLoss="43.87" rerouteNo="0" devices="tripinfo_49" vType="DEFAULT_VEHTYPE" speedFactor="1.11" vaporized=""/>
    <tripinfo id="27" depart="155.00" departLane="right1D1_0" departPos="5.10" departSpeed="0.00" departDelay="0.00" arrival="402.00" arrivalLane="A3left3_0" arrivalPos="286.40" arrivalSpeed="13.68" duration="247.00" routeLength="2082.76" waitingTime="66.00" waitingCount="4" stopTime="0.00" timeLoss="101.26" rerouteNo="0" devices="tripinfo_27" vType="DEFAULT_VEHTYPE" speedFactor="1.04" vaporized=""/>
    <tripinfo id="70" depart="331.00" departLane="left0A0_0" departPos="5.10" departSpeed="0.00" departDelay="0.00" arrival="405.00" arrivalLane="B0bottom1_0" arrivalPos="286.40" arrivalSpeed="14.24" duration="74.00" routeLength="876.90" waitingTime="1.00" waitingCount="1" stopTime="0.00" timeLoss="13.91" rerouteNo="0" devices="tripinfo_70" vType="DEFAULT_VEHTYPE" speedFactor="1.06" vaporized=""/>
    <tripinfo id="52" depart="267.00" departLane="bottom0A0_0" departPos="5.10" departSpeed="0.00" departDelay="0.00" arrival="409.00" arrivalLane="A2left2_0" arrivalPos="286.40" arrivalSpeed="13.45" duration="142.00" routeLength="1197.89" waitingTime="36.00" waitingCount="2" stopTime="0.00" timeLoss="54.00" rerouteNo="0" devices="tripinfo_52" vType="DEFAULT_VEHTYPE" speedFactor="0.99" vaporized=""/>
    <tripinfo id="69" depart="330.00" departLane="bottom0A0_0" departPos="5.10" departSpeed="0.00" departDelay="0.00" arrival="411.00" arrivalLane="A1left1_0" arrivalPos="286.40" arrivalSpeed="13.91" duration="81.00" routeLength="897.72" waitingTime="7.00" waitingCount="1" stopTime="0.00" timeLoss="19.16" rerouteNo="0" devices="tripinfo_69" vType="DEFAULT_VEHTYPE" speedFactor="1.06" vaporized=""/>
    <tripinfo id="39" depart="198.00" departLane="bottom3D0_0" departPos="5.10" departSpeed="0.00" departDelay="0.00" arrival="412.00" arrivalLane="D3top3_0" arrivalPos="286.40" arrivalSpeed="10.66" duration="214.00" routeLength="1495.58" waitingTime="58.00" waitingCount="3" stopTime="0.00" timeLoss="82.80" rerouteNo="0" devices="tripinfo_39" vType="DEFAULT_VEHTYPE" speedFactor="0.82" vaporized=""/>
    <tripinfo id="61" depart="302.00" departLane="top3D3_0" departPos="5.10" departSpeed="0.00" departDelay="0.00" arrival="413.00" arrivalLane="B3top1_0" arrivalPos="286.40" arrivalSpeed="14.87" duration="111.00" routeLength="1161.43" waitingTime="12.00" waitingCount="3" stopTime="0.00" timeLoss="33.45" rerouteNo="0" devices="tripinfo_61" vType="DEFAULT_VEHTYPE" speedFactor="1.11" vaporized=""/>
    <tripinfo id="41" depart="200.00" departLane="top3D3_0" departPos="5.10" departSpeed="0.00" departDelay="0.00" arrival="421.00" arrivalLane="A3left3_0" arrivalPos="286.40" arrivalSpeed="12.21" duration="221.00" routeLength="1479.94" waitingTime="72.00" waitingCount="4" stopTime="0.00" timeLoss="99.74" rerouteNo="0" devices="tripinfo_41" vType="DEFAULT_VEHTYPE" speedFactor="0.88" vaporized=""/>
    <tripinfo id="48" depart="254.00" departLane="right0D0_0" departPos="5.10" departSpeed="0.00" departDelay="0.00" arrival="424.00" arrivalLane="C3top2_0" arrivalPos="286.40" arrivalSpeed="15.75" duration="170.00" routeLength="1780.11" waitingTime="37.00" waitingCount="3" stopTime="0.00" timeLoss="63.71" rerouteNo="0" devices="tripinfo_48" vType="DEFAULT_VEHTYPE" speedFactor="1.22" vaporized=""/>
    <tripinfo id="78" depart="358.00" departLane="top1B3_0" departPos="5.10" departSpeed="0.00" departDelay="0.00" arrival="426.00" arrivalLane="A3left3_1" arrivalPos="286.40" arrivalSpeed="14.57" duration="68.00" routeLength="879.60" waitingTime="0.00" waitingCount="0" stopTime="0.00" timeLoss="9.32" rerouteNo="0" devices="tripinfo_78" vType="DEFAULT_VEHTYPE" speedFactor="1.11" vaporized=""/>
    <tripinfo id="65" depart="323.00" departLane="top2C3_0" departPos="5.10" departSpeed="0.00" departDelay="0.00" arrival="427.00" arrivalLane="A3left3_0" arrivalPos="286.40" arrivalSpeed="12.34" duration="104.00" routeLength="1179.77" waitingTime="0.00" waitingCount="0" stopTime="0.00" timeLoss="13.76" rerouteNo="0" devices="tripinfo_65" vType="DEFAULT_VEHTYPE" speedFactor="0.95" vaporized=""/>
    <tripinfo id="62" depart="313.00" departLane="bottom3D0_0" departPos="5.10" departSpeed="0.00" departDelay="0.00" arrival="450.00" arrivalLane="D3right3_0" arrivalPos="286.40" arrivalSpeed="11.94" duration="137.00" routeLength="1477.24" waitingTime="4.00" waitingCount="2" stopTime="0.00" timeLoss="23.14" rerouteNo="0" devices="tripinfo_62" vType="DEFAULT_VEHTYPE" speedFactor="0.94" vaporized=""/>
    <tripinfo id="67" depart="324.00" departLane="left2A2_0" departPos="5.10" departSpeed="0.00" departDelay="0.00" arrival="451.00" arrivalLane="A3left3_0" arrivalPos="286.40" arrivalSpeed="12.00" duration="127.00" routeLength="894.86" waitingTime="41.00" waitingCount="2" stopTime="0.00" timeLoss="55.85" rerouteNo="0" devices="tripinfo_67" vType="DEFAULT_VEHTYPE" speedFactor="0.92" vaporized=""/>
    <tripinfo id="51" depart="265.00" departLane="right2D2_0" departPos="5.10" departSpeed="0.00" departDelay="0.00" arrival="468.00" arrivalLane="B0bottom1_0" arrivalPos="286.40" arrivalSpeed="14.59" duration="203.00" routeLength="1795.52" waitingTime="51.00" waitingCount="3" stopTime="0.00" timeLoss="81.64" rerouteNo="0" devices="tripinfo_51" vType="DEFAULT_VEHTYPE" speedFactor="1.07" vaporized=""/>
    <tripinfo id="60" depart="300.00" departLane="bottom3D0_0" departPos="5.10" departSpeed="0.00" departDelay="0.00" arrival="469.00" arrivalLane="C3top2_0" arrivalPos="286.40" arrivalSpeed="12.96" duration="169.00" routeLength="1782.59" waitingTime="11.00" waitingCount="4" stopTime="0.00" timeLoss="42.33" rerouteNo="0" devices="tripinfo_60" vType="DEFAULT_VEHTYPE" speedFactor="1.02" vaporized=""/>
    <tripinfo id="45" depart="234.00" departLane="bottom0A0_0" departPos="5.10" departSpeed="0.00" departDelay="0.00" arrival="478.00" arrivalLane="D3right3_0" arrivalPos="286.40" arrivalSpeed="14.06" duration="244.00" routeLength="2380.45" waitingTime="50.00" waitingCount="3" stopTime="0.00" timeLoss="83.25" rerouteNo="0" devices="tripinfo_45" vType="DEFAULT_VEHTYPE" speedFactor="1.07" vaporized=""/>
    <tripinfo id="33" depart="165.00" departLane="bottom0A0_0" departPos="5.10" departSpeed="0.00" departDelay="0.00" arrival="480.00" arrivalLane="D3top3_0" arrivalPos="286.40" arrivalSpeed="13.62" duration="315.00" routeLength="2382.93" waitingTime="95.00" waitingCount="6" stopTime="0.00" timeLoss="140.93" rerouteNo="0" devices="tripinfo_33" vType="DEFAULT_VEHTYPE" speedFactor="1.00" vaporized=""/>
    <tripinfo id="79" depart="358.00" departLane="right3D3_0" departPos="5.10" departSpeed="0.00" departDelay="0.00" arrival="487.00" arrivalLane="D1right1_0" arrivalPos="286.40" arrivalSpeed="12.05" duration="129.00" routeLength="1197.66" waitingTime="16.00" waitingCount="2" stopTime="0.00" timeLoss="33.30" rerouteNo="0" devices="tripinfo_79" vType="DEFAULT_VEHTYPE" speedFactor="0.92" vaporized=""/>
    <tripinfo id="84" depart="376.00" departLane="bottom1B0_0" departPos="5.10" departSpeed="0.00" departDelay="0.00" arrival="487.00" arrivalLane="D0bottom3_0" arrivalPos="286.40" arrivalSpeed="12.59" duration="111.00" routeLength="1161.43" waitingTime="2.00" waitingCount="1" stopTime="0.00" timeLoss="18.30" rerouteNo="0" devices="tripinfo_84" vType="DEFAULT_VEHTYPE" speedFactor="0.92" vaporized=""/>
    <tripinfo id="56" depart="277.00" departLane="top0A3_0" departPos="5.10" departSpeed="0.00" departDelay="0.00" arrival="490.00" arrivalLane="A0bottom0_0" arrivalPos="286.40" arrivalSpeed="11.63" duration="213.00" routeLength="1495.58" waitingTime="58.00" waitingCount="3" stopTime="0.00" timeLoss="85.19" rerouteNo="0" devices="tripinfo_56" vType="DEFAULT_VEHTYPE" speedFactor="0.85" vaporized=""/>
    <tripinfo id="90" depart="401.00" departLane="left3A3_0" departPos="5.10" departSpeed="0.00" departDelay="0.00" arrival="498.00" arrivalLane="B3top1_0" arrivalPos="286.40" arrivalSpeed="13.72" duration="97.00" routeLength="897.72" waitingTime="18.00" waitingCount="2" stopTime="0.00" timeLoss="35.94" rerouteNo="0" devices="tripinfo_90" vType="DEFAULT_VEHTYPE" speedFactor="1.07" vaporized=""/>
    <tripinfo id="73" depart="341.00" departLane="top0A3_0" departPos="5.10" departSpeed="0.00" departDelay="0.00" arrival="501.00" arrivalLane="D3right3_0" arrivalPos="286.40" arrivalSpeed="13.86" duration="160.00" routeLength="1495.35" waitingTime="27.00" waitingCount="3" stopTime="0.00" timeLoss="53.98" rerouteNo="0" devices="tripinfo_73" vType="DEFAULT_VEHTYPE" speedFactor="1.03" vaporized=""/>
    <tripinfo id="63" depart="316.00" departLane="top1B3_0" departPos="5.10" departSpeed="0.00" departDelay="0.00" arrival="510.00" arrivalLane="B0bottom1_0" arrivalPos="286.40" arrivalSpeed="12.18" duration="194.00" routeLength="1495.58" waitingTime="57.00" waitingCount="3" stopTime="0.00" timeLoss="81.55" rerouteNo="0" devices="tripinfo_63" vType="DEFAULT_VEHTYPE" speedFactor="0.96" vaporized=""/>
    <tripinfo id="64" depart="318.00" departLane="bottom2C0_0" departPos="5.10" departSpeed="0.00" departDelay="0.00" arrival="510.00" arrivalLane="A3top0_0" arrivalPos="286.40" arrivalSpeed="15.28" duration="192.00" routeLength="2080.05" waitingTime="28.00" waitingCount="4" stopTime="0.00" timeLoss="63.06" rerouteNo="0" devices="tripinfo_64" vType="DEFAULT_VEHTYPE" speedFactor="1.17" vaporized=""/>