<?xml version="1.0" encoding="UTF-8"?>

<!-- generated on 12/19/21 12:37:02 by Eclipse SUMO sumo Version 1.7.0
<configuration xmlns:xsi="http://www.w3.org/2001/XMLSchema-instance" xsi:noNamespaceSchemaLocation="http://sumo.dlr.de/xsd/sumoConfiguration.xsd">

    <input>
        <net-file value="C:\Users\longs\Desktop\RESCO-main\environments\grid4x4\grid4x4.net.xml"/>
        <route-files value="C:\Users\longs\Desktop\RESCO-main\environments\grid4x4\grid4x4_6.rou.xml"/>
    </input>

    <output>
        <tripinfo-output value="C:\Users\longs\Desktop\RESCO-main\logs\IDQN-tr1-grid4x4-0-drqlong-delaydiff_pressure03\tripinfo_6.xml"/>
        <tripinfo-output.write-unfinished value="true"/>
    </output>

    <processing>
        <time-to-teleport value="-1"/>
    </processing>

    <report>
        <no-warnings value="true"/>
        <no-step-log value="true"/>
    </report>

    <traci_server>
        <remote-port value="51198"/>
    </traci_server>

    <random_number>
        <random value="true"/>
    </random_number>

</configuration>
-->

<tripinfos xmlns:xsi="http://www.w3.org/2001/XMLSchema-instance" xsi:noNamespaceSchemaLocation="http://sumo.dlr.de/xsd/tripinfo_file.xsd">
    <tripinfo id="2" depart="19.00" departLane="left1A1_0" departPos="5.10" departSpeed="0.00" departDelay="0.00" arrival="108.00" arrivalLane="A0bottom0_0" arrivalPos="286.40" arrivalSpeed="14.27" duration="89.00" routeLength="879.60" waitingTime="12.00" waitingCount="2" stopTime="0.00" timeLoss="29.48" rerouteNo="0" devices="tripinfo_2" vType="DEFAULT_VEHTYPE" speedFactor="1.09" vaporized=""/>
    <tripinfo id="1" depart="14.00" departLane="right3D3_0" departPos="5.10" departSpeed="0.00" departDelay="0.00" arrival="138.00" arrivalLane="C3top2_0" arrivalPos="286.40" arrivalSpeed="12.87" duration="124.00" routeLength="876.90" waitingTime="41.00" waitingCount="2" stopTime="0.00" timeLoss="55.24" rerouteNo="0" devices="tripinfo_1" vType="DEFAULT_VEHTYPE" speedFactor="0.93" vaporized=""/>
    <tripinfo id="6" depart="42.00" departLane="left3A3_0" departPos="5.10" departSpeed="0.00" departDelay="0.00" arrival="142.00" arrivalLane="B3top1_0" arrivalPos="286.40" arrivalSpeed="12.83" duration="100.00" routeLength="897.72" waitingTime="25.00" waitingCount="1" stopTime="0.00" timeLoss="35.34" rerouteNo="0" devices="tripinfo_6" vType="DEFAULT_VEHTYPE" speedFactor="1.01" vaporized=""/>
    <tripinfo id="12" depart="69.00" departLane="top2C3_0" departPos="5.10" departSpeed="0.00" departDelay="0.00" arrival="156.00" arrivalLane="B3top1_0" arrivalPos="286.40" arrivalSpeed="12.32" duration="87.00" routeLength="858.56" waitingTime="2.00" waitingCount="2" stopTime="0.00" timeLoss="16.19" rerouteNo="0" devices="tripinfo_12" vType="DEFAULT_VEHTYPE" speedFactor="0.89" vaporized=""/>
    <tripinfo id="5" depart="35.00" departLane="right3D3_0" departPos="5.10" departSpeed="0.00" departDelay="0.00" arrival="198.00" arrivalLane="A3left3_0" arrivalPos="286.40" arrivalSpeed="13.23" duration="163.00" routeLength="1495.58" waitingTime="32.00" waitingCount="2" stopTime="0.00" timeLoss="50.59" rerouteNo="0" devices="tripinfo_5" vType="DEFAULT_VEHTYPE" speedFactor="0.96" vaporized=""/>
    <tripinfo id="17" depart="96.00" departLane="right2D2_0" departPos="5.10" departSpeed="0.00" departDelay="0.00" arrival="212.00" arrivalLane="D1right1_0" arrivalPos="286.40" arrivalSpeed="12.15" duration="116.00" routeLength="894.86" waitingTime="29.00" waitingCount="2" stopTime="0.00" timeLoss="43.72" rerouteNo="0" devices="tripinfo_17" vType="DEFAULT_VEHTYPE" speedFactor="0.91" vaporized=""/>
    <tripinfo id="3" depart="22.00" departLane="bottom0A0_0" departPos="5.10" departSpeed="0.00" departDelay="0.00" arrival="216.00" arrivalLane="A3left3_0" arrivalPos="286.40" arrivalSpeed="12.60" duration="194.00" routeLength="1498.06" waitingTime="57.00" waitingCount="2" stopTime="0.00" timeLoss="76.18" rerouteNo="0" devices="tripinfo_3" vType="DEFAULT_VEHTYPE" speedFactor="0.92" vaporized=""/>
    <tripinfo id="27" depart="131.00" departLane="right2D2_0" departPos="5.10" departSpeed="0.00" departDelay="0.00" arrival="217.00" arrivalLane="D3right3_0" arrivalPos="286.40" arrivalSpeed="12.73" duration="86.00" routeLength="858.56" waitingTime="2.00" waitingCount="2" stopTime="0.00" timeLoss="18.32" rerouteNo="0" devices="tripinfo_27" vType="DEFAULT_VEHTYPE" speedFactor="0.93" vaporized=""/>
    <tripinfo id="4" depart="33.00" departLane="left3A3_0" departPos="5.10" departSpeed="0.00" departDelay="0.00" arrival="218.00" arrivalLane="A1left1_0" arrivalPos="286.40" arrivalSpeed="13.65" duration="185.00" routeLength="1161.43" waitingTime="78.00" waitingCount="3" stopTime="0.00" timeLoss="98.47" rerouteNo="0" devices="tripinfo_4" vType="DEFAULT_VEHTYPE" speedFactor="0.98" vaporized=""/>
    <tripinfo id="11" depart="60.00" departLane="bottom2C0_0" departPos="5.10" departSpeed="0.00" departDelay="0.00" arrival="218.00" arrivalLane="B0bottom1_0" arrivalPos="286.40" arrivalSpeed="14.31" duration="158.00" routeLength="894.86" waitingTime="81.00" waitingCount="2" stopTime="0.00" timeLoss="96.31" rerouteNo="0" devices="tripinfo_11" vType="DEFAULT_VEHTYPE" speedFactor="1.06" vaporized=""/>
    <tripinfo id="25" depart="126.00" departLane="top2C3_0" departPos="5.10" departSpeed="0.00" departDelay="0.00" arrival="229.00" arrivalLane="A3top0_0" arrivalPos="286.40" arrivalSpeed="12.75" duration="103.00" routeLength="1161.43" waitingTime="1.00" waitingCount="1" stopTime="0.00" timeLoss="13.60" rerouteNo="0" devices="tripinfo_25" vType="DEFAULT_VEHTYPE" speedFactor="0.95" vaporized=""/>
    <tripinfo id="28" depart="131.00" departLane="left3A3_0" departPos="5.10" departSpeed="0.00" departDelay="0.00" arrival="234.00" arrivalLane="A1left1_0" arrivalPos="286.40" arrivalSpeed="14.02" duration="103.00" routeLength="1161.43" waitingTime="4.00" waitingCount="1" stopTime="0.00" timeLoss="18.94" rerouteNo="0" devices="tripinfo_28" vType="DEFAULT_VEHTYPE" speedFactor="1.02" vaporized=""/>
    <tripinfo id="10" depart="56.00" departLane="right0D0_0" departPos="5.10" departSpeed="0.00" departDelay="0.00" arrival="277.00" arrivalLane="A1left1_0" arrivalPos="286.40" arrivalSpeed="14.66" duration="221.00" routeLength="1782.72" waitingTime="76.00" waitingCount="4" stopTime="0.00" timeLoss="101.63" rerouteNo="0" devices="tripinfo_10" vType="DEFAULT_VEHTYPE" speedFactor="1.09" vaporized=""/>
    <tripinfo id="24" depart="124.00" departLane="top0A3_0" departPos="5.10" departSpeed="0.00" departDelay="0.00" arrival="281.00" arrivalLane="A0bottom0_0" arrivalPos="286.40" arrivalSpeed="11.83" duration="157.00" routeLength="1495.58" waitingTime="20.00" waitingCount="2" stopTime="0.00" timeLoss="42.06" rerouteNo="0" devices="tripinfo_24" vType="DEFAULT_VEHTYPE" speedFactor="0.94" vaporized=""/>
    <tripinfo id="30" depart="152.00" departLane="top1B3_0" departPos="5.10" departSpeed="0.00" departDelay="0.00" arrival="297.00" arrivalLane="D3top3_0" arrivalPos="286.40" arrivalSpeed="12.45" duration="145.00" routeLength="1197.66" waitingTime="32.00" waitingCount="2" stopTime="0.00" timeLoss="48.79" rerouteNo="0" devices="tripinfo_30" vType="DEFAULT_VEHTYPE" speedFactor="0.91" vaporized=""/>
    <tripinfo id="0" depart="9.00" departLane="top3D3_0" departPos="5.10" departSpeed="0.00" departDelay="0.00" arrival="299.00" arrivalLane="A0bottom0_0" arrivalPos="286.40" arrivalSpeed="12.79" duration="290.00" routeLength="2382.93" waitingTime="80.00" waitingCount="5" stopTime="0.00" timeLoss="118.89" rerouteNo="0" devices="tripinfo_0" vType="DEFAULT_VEHTYPE" speedFactor="1.01" vaporized=""/>
    <tripinfo id="8" depart="54.00" departLane="bottom1B0_0" departPos="5.10" departSpeed="0.00" departDelay="0.00" arrival="302.00" arrivalLane="B0bottom1_0" arrivalPos="286.40" arrivalSpeed="11.98" duration="248.00" routeLength="1748.75" waitingTime="78.00" waitingCount="3" stopTime="0.00" timeLoss="106.09" rerouteNo="0" devices="tripinfo_8" vType="DEFAULT_VEHTYPE" speedFactor="0.91" vaporized=""/>
    <tripinfo id="9" depart="54.00" departLane="right3D3_0" departPos="5.10" departSpeed="0.00" departDelay="0.00" arrival="313.00" arrivalLane="A0bottom0_0" arrivalPos="286.40" arrivalSpeed="13.20" duration="259.00" routeLength="2395.86" waitingTime="41.00" waitingCount="5" stopTime="0.00" timeLoss="83.00" rerouteNo="0" devices="tripinfo_9" vType="DEFAULT_VEHTYPE" speedFactor="0.98" vaporized=""/>
    <tripinfo id="29" depart="140.00" departLane="top3D3_0" departPos="5.10" departSpeed="0.00" departDelay="0.00" arrival="314.00" arrivalLane="D1right1_0" arrivalPos="286.40" arrivalSpeed="11.27" duration="174.00" routeLength="1197.89" waitingTime="49.00" waitingCount="3" stopTime="0.00" timeLoss="70.57" rerouteNo="0" devices="tripinfo_29" vType="DEFAULT_VEHTYPE" speedFactor="0.84" vaporized=""/>
    <tripinfo id="42" depart="219.00" departLane="left1A1_0" departPos="5.10" departSpeed="0.00" departDelay="1.00" arrival="323.00" arrivalLane="B0bottom1_0" arrivalPos="286.40" arrivalSpeed="14.58" duration="104.00" routeLength="1179.77" waitingTime="9.00" waitingCount="1" stopTime="0.00" timeLoss="23.88" rerouteNo="0" devices="tripinfo_42" vType="DEFAULT_VEHTYPE" speedFactor="1.07" vaporized=""/>
    <tripinfo id="34" depart="160.00" departLane="bottom0A0_0" departPos="5.10" departSpeed="0.00" departDelay="1.00" arrival="331.00" arrivalLane="A2left2_0" arrivalPos="286.40" arrivalSpeed="12.79" duration="171.00" routeLength="1197.89" waitingTime="55.00" waitingCount="3" stopTime="0.00" timeLoss="78.15" rerouteNo="0" devices="tripinfo_34" vType="DEFAULT_VEHTYPE" speedFactor="0.94" vaporized=""/>
    <tripinfo id="39" depart="199.00" departLane="bottom0A0_0" departPos="5.10" departSpeed="0.00" departDelay="0.00" arrival="341.00" arrivalLane="A1left1_0" arrivalPos="286.40" arrivalSpeed="11.72" duration="142.00" routeLength="897.72" waitingTime="54.00" waitingCount="2" stopTime="0.00" timeLoss="71.42" rerouteNo="0" devices="tripinfo_39" vType="DEFAULT_VEHTYPE" speedFactor="0.93" vaporized=""/>
    <tripinfo id="20" depart="109.00" departLane="bottom1B0_0" departPos="5.10" departSpeed="0.00" departDelay="0.00" arrival="342.00" arrivalLane="D2right2_0" arrivalPos="286.40" arrivalSpeed="11.55" duration="233.00" routeLength="1780.11" waitingTime="60.00" waitingCount="4" stopTime="0.00" timeLoss="87.27" rerouteNo="0" devices="tripinfo_20" vType="DEFAULT_VEHTYPE" speedFactor="0.89" vaporized=""/>
    <tripinfo id="21" depart="115.00" departLane="right2D2_0" departPos="5.10" departSpeed="0.00" departDelay="0.00" arrival="350.00" arrivalLane="D2right2_0" arrivalPos="286.40" arrivalSpeed="12.57" duration="235.00" routeLength="1748.75" waitingTime="74.00" waitingCount="3" stopTime="0.00" timeLoss="99.41" rerouteNo="0" devices="tripinfo_21" vType="DEFAULT_VEHTYPE" speedFactor="0.94" vaporized=""/>
    <tripinfo id="32" depart="155.00" departLane="top0A3_0" departPos="5.10" departSpeed="0.00" departDelay="0.00" arrival="350.00" arrivalLane="A3top0_0" arrivalPos="286.40" arrivalSpeed="12.49" duration="195.00" routeLength="1745.91" waitingTime="31.00" waitingCount="4" stopTime="0.00" timeLoss="61.69" rerouteNo="0" devices="tripinfo_32" vType="DEFAULT_VEHTYPE" speedFactor="0.97" vaporized=""/>
    <tripinfo id="14" depart="76.00" departLane="right3D3_0" departPos="5.10" departSpeed="0.00" departDelay="0.00" arrival="367.00" arrivalLane="C0bottom2_0" arrivalPos="286.40" arrivalSpeed="14.89" duration="291.00" routeLength="1795.52" waitingTime="138.00" waitingCount="5" stopTime="0.00" timeLoss="173.85" rerouteNo="0" devices="tripinfo_14" vType="DEFAULT_VEHTYPE" speedFactor="1.11" vaporized=""/>
    <tripinfo id="31" depart="153.00" departLane="right3D3_0" departPos="5.10" departSpeed="0.00" departDelay="0.00" arrival="370.00" arrivalLane="D0bottom3_0" arrivalPos="286.40" arrivalSpeed="12.70" duration="217.00" routeLength="1495.35" waitingTime="82.00" waitingCount="3" stopTime="0.00" timeLoss="103.11" rerouteNo="0" devices="tripinfo_31" vType="DEFAULT_VEHTYPE" speedFactor="0.96" vaporized=""/>
    <tripinfo id="13" depart="74.00" departLane="left2A2_0" departPos="5.10" departSpeed="0.00" departDelay="0.00" arrival="374.00" arrivalLane="D0bottom3_0" arrivalPos="286.40" arrivalSpeed="11.20" duration="300.00" routeLength="2080.28" waitingTime="88.00" waitingCount="5" stopTime="0.00" timeLoss="128.48" rerouteNo="0" devices="tripinfo_13" vType="DEFAULT_VEHTYPE" speedFactor="0.88" vaporized=""/>
    <tripinfo id="47" depart="236.00" departLane="bottom1B0_0" departPos="5.10" departSpeed="0.00" departDelay="0.00" arrival="380.00" arrivalLane="A0left0_0" arrivalPos="286.40" arrivalSpeed="12.99" duration="144.00" routeLength="895.01" waitingTime="60.00" waitingCount="2" stopTime="0.00" timeLoss="74.91" rerouteNo="0" devices="tripinfo_47" vType="DEFAULT_VEHTYPE" speedFactor="0.95" vaporized=""/>
    <tripinfo id="22" depart="121.00" departLane="right1D1_0" departPos="5.10" departSpeed="0.00" departDelay="0.00" arrival="386.00" arrivalLane="A3left3_0" arrivalPos="286.40" arrivalSpeed="11.69" duration="265.00" routeLength="2082.76" waitingTime="70.00" waitingCount="4" stopTime="0.00" timeLoss="102.11" rerouteNo="0" devices="tripinfo_22" vType="DEFAULT_VEHTYPE" speedFactor="0.93" vaporized=""/>
    <tripinfo id="37" depart="192.00" departLane="bottom3D0_0" departPos="5.10" departSpeed="0.00" departDelay="0.00" arrival="388.00" arrivalLane="C3top2_0" arrivalPos="286.40" arrivalSpeed="14.45" duration="196.00" routeLength="1782.59" waitingTime="46.00" waitingCount="3" stopTime="0.00" timeLoss="71.57" rerouteNo="0" devices="tripinfo_37" vType="DEFAULT_VEHTYPE" speedFactor="1.04" vaporized=""/>
    <tripinfo id="46" depart="232.00" departLane="right1D1_0" departPos="5.10" departSpeed="0.00" departDelay="0.00" arrival="388.00" arrivalLane="D0right0_0" arrivalPos="286.40" arrivalSpeed="13.80" duration="156.00" routeLength="894.86" waitingTime="78.00" waitingCount="2" stopTime="0.00" timeLoss="93.48" rerouteNo="0" devices="tripinfo_46" vType="DEFAULT_VEHTYPE" speedFactor="1.06" vaporized=""/>
    <tripinfo id="7" depart="46.00" departLane="left1A1_0" departPos="5.10" departSpeed="0.00" departDelay="0.00" arrival="389.00" arrivalLane="D3right3_0" arrivalPos="286.40" arrivalSpeed="12.98" duration="343.00" routeLength="2080.05" waitingTime="152.00" waitingCount="5" stopTime="0.00" timeLoss="187.24" rerouteNo="0" devices="tripinfo_7" vType="DEFAULT_VEHTYPE" speedFactor="0.97" vaporized=""/>
    <tripinfo id="35" depart="178.00" departLane="top1B3_0" departPos="5.10" departSpeed="0.00" departDelay="0.00" arrival="393.00" arrivalLane="A1left1_0" arrivalPos="286.40" arrivalSpeed="10.61" duration="215.00" routeLength="1479.94" waitingTime="63.00" waitingCount="3" stopTime="0.00" timeLoss="86.68" rerouteNo="0" devices="tripinfo_35" vType="DEFAULT_VEHTYPE" speedFactor="0.84" vaporized=""/>
    <tripinfo id="61" depart="309.00" departLane="bottom2C0_0" departPos="5.10" departSpeed="0.00" departDelay="0.00" arrival="400.00" arrivalLane="D0right0_0" arrivalPos="286.40" arrivalSpeed="12.25" duration="91.00" routeLength="879.60" waitingTime="8.00" waitingCount="2" stopTime="0.00" timeLoss="23.27" rerouteNo="0" devices="tripinfo_61" vType="DEFAULT_VEHTYPE" speedFactor="0.94" vaporized=""/>
    <tripinfo id="19" depart="105.00" departLane="bottom0A0_0" departPos="5.10" departSpeed="0.00" departDelay="0.00" arrival="401.00" arrivalLane="D0right0_1" arrivalPos="286.40" arrivalSpeed="13.18" duration="296.00" routeLength="1479.94" waitingTime="171.00" waitingCount="2" stopTime="0.00" timeLoss="191.65" rerouteNo="0" devices="tripinfo_19" vType="DEFAULT_VEHTYPE" speedFactor="1.03" vaporized=""/>
    <tripinfo id="33" depart="157.00" departLane="bottom0A0_0" departPos="5.10" departSpeed="0.00" departDelay="0.00" arrival="405.00" arrivalLane="D0bottom3_0" arrivalPos="286.40" arrivalSpeed="12.84" duration="248.00" routeLength="1461.60" waitingTime="114.00" waitingCount="3" stopTime="0.00" timeLoss="141.05" rerouteNo="0" devices="tripinfo_33" vType="DEFAULT_VEHTYPE" speedFactor="1.00" vaporized=""/>
    <tripinfo id="43" depart="225.00" departLane="bottom0A0_0" departPos="5.10" departSpeed="0.00" departDelay="0.00" arrival="407.00" arrivalLane="D1right1_0" arrivalPos="286.40" arrivalSpeed="14.16" duration="182.00" routeLength="1780.11" waitingTime="29.00" waitingCount="4" stopTime="0.00" timeLoss="64.72" rerouteNo="0" devices="tripinfo_43" vType="DEFAULT_VEHTYPE" speedFactor="1.10" vaporized=""/>
    <tripinfo id="63" depart="330.00" departLane="bottom1B0_0" departPos="5.10" departSpeed="0.00" departDelay="0.00" arrival="409.00" arrivalLane="C0bottom2_0" arrivalPos="286.40" arrivalSpeed="12.46" duration="79.00" routeLength="858.56" waitingTime="0.00" waitingCount="0" stopTime="0.00" timeLoss="10.04" rerouteNo="0" devices="tripinfo_63" vType="DEFAULT_VEHTYPE" speedFactor="0.91" vaporized=""/>
    <tripinfo id="23" depart="123.00" departLane="right3D3_0" departPos="5.10" departSpeed="0.00" departDelay="0.00" arrival="439.00" arrivalLane="A0left0_0" arrivalPos="286.40" arrivalSpeed="13.33" duration="316.00" routeLength="2380.22" waitingTime="102.00" waitingCount="6" stopTime="0.00" timeLoss="145.49" rerouteNo="0" devices="tripinfo_23" vType="DEFAULT_VEHTYPE" speedFactor="1.01" vaporized=""/>
    <tripinfo id="36" depart="189.00" departLane="left2A2_0" departPos="5.10" departSpeed="0.00" departDelay="0.00" arrival="446.00" arrivalLane="D3top3_0" arrivalPos="286.40" arrivalSpeed="12.53" duration="257.00" routeLength="1795.52" waitingTime="87.00" waitingCount="3" stopTime="0.00" timeLoss="115.38" rerouteNo="0" devices="tripinfo_36" vType="DEFAULT_VEHTYPE" speedFactor="0.92" vaporized=""/>
    <tripinfo id="41" depart="216.00" departLane="left1A1_0" departPos="5.10" departSpeed="0.00" departDelay="0.00" arrival="457.00" arrivalLane="B3top1_0" arrivalPos="286.40" arrivalSpeed="15.00" duration="241.00" routeLength="1495.35" waitingTime="111.00" waitingCount="4" stopTime="0.00" timeLoss="144.44" rerouteNo="0" devices="tripinfo_41" vType="DEFAULT_VEHTYPE" speedFactor="1.12" vaporized=""/>
    <tripinfo id="48" depart="245.00" departLane="left1A1_0" departPos="5.10" departSpeed="0.00" departDelay="0.00" arrival="458.00" arrivalLane="C3top2_0" arrivalPos="286.40" arrivalSpeed="13.96" duration="213.00" routeLength="1795.52" waitingTime="53.00" waitingCount="3" stopTime="0.00" timeLoss="84.93" rerouteNo="0" devices="tripinfo_48" vType="DEFAULT_VEHTYPE" speedFactor="1.01" vaporized=""/>
    <tripinfo id="52" depart="253.00" departLane="right2D2_0" departPos="5.10" departSpeed="0.00" departDelay="0.00" arrival="458.00" arrivalLane="D2right2_0" arrivalPos="286.40" arrivalSpeed="14.30" duration="205.00" routeLength="1748.75" waitingTime="53.00" waitingCount="4" stopTime="0.00" timeLoss="83.91" rerouteNo="0" devices="tripinfo_52" vType="DEFAULT_VEHTYPE" speedFactor="1.06" vaporized=""/>
    <tripinfo id="55" depart="278.00" departLane="left1A1_0" departPos="5.10" departSpeed="0.00" departDelay="0.00" arrival="460.00" arrivalLane="C3top2_0" arrivalPos="286.40" arrivalSpeed="14.19" duration="182.00" routeLength="1795.52" waitingTime="31.00" waitingCount="2" stopTime="0.00" timeLoss="59.87" rerouteNo="0" devices="tripinfo_55" vType="DEFAULT_VEHTYPE" speedFactor="1.07" vaporized=""/>
    <tripinfo id="15" depart="88.00" departLane="top0A3_0" departPos="5.10" departSpeed="0.00" departDelay="0.00" arrival="469.00" arrivalLane="C0bottom2_0" arrivalPos="286.40" arrivalSpeed="12.67" duration="381.00" routeLength="2080.05" waitingTime="186.00" waitingCount="6" stopTime="0.00" timeLoss="228.21" rerouteNo="0" devices="tripinfo_15" vType="DEFAULT_VEHTYPE" speedFactor="0.99" vaporized=""/>
    <tripinfo id="16" depart="91.00" departLane="top0A3_0" departPos="5.10" departSpeed="0.00" departDelay="3.00" arrival="475.00" arrivalLane="C0bottom2_0" arrivalPos="286.40" arrivalSpeed="11.61" duration="384.00" routeLength="2080.05" waitingTime="165.00" waitingCount="4" stopTime="0.00" timeLoss="204.22" rerouteNo="0" devices="tripinfo_16" vType="DEFAULT_VEHTYPE" speedFactor="0.84" vaporized=""/>
    <tripinfo id="49" depart="249.00" departLane="right3D3_0" departPos="5.10" departSpeed="0.00" departDelay="0.00" arrival="476.00" arrivalLane="D0right0_0" arrivalPos="286.40" arrivalSpeed="15.10" duration="227.00" routeLength="1497.83" waitingTime="102.00" waitingCount="4" stopTime="0.00" timeLoss="131.49" rerouteNo="0" devices="tripinfo_49" vType="DEFAULT_VEHTYPE" speedFactor="1.14" vaporized=""/>
    <tripinfo id="38" depart="195.00" departLane="right3D3_0" departPos="5.10" departSpeed="0.00" departDelay="0.00" arrival="479.00" arrivalLane="A1left1_0" arrivalPos="286.40" arrivalSpeed="13.36" duration="284.00" routeLength="2080.05" waitingTime="91.00" waitingCount="5" stopTime="0.00" timeLoss="129.80" rerouteNo="0" devices="tripinfo_38" vType="DEFAULT_VEHTYPE" speedFactor="0.98" vaporized=""/>
    <tripinfo id="45" depart="229.00" departLane="right3D3_0" departPos="5.10" departSpeed="0.00" departDelay="0.00" arrival="482.00" arrivalLane="A1left1_0" arrivalPos="286.40" arrivalSpeed="12.27" duration="253.00" routeLength="2080.05" waitingTime="55.00" waitingCount="4" stopTime="0.00" timeLoss="96.42" rerouteNo="0" devices="tripinfo_45" vType="DEFAULT_VEHTYPE" speedFactor="0.96" vaporized=""/>
    <tripinfo id="59" depart="295.00" departLane="top3D3_0" departPos="5.10" departSpeed="0.00" departDelay="0.00" arrival="486.00" arrivalLane="D1right1_0" arrivalPos="286.40" arrivalSpeed="13.03" duration="191.00" routeLength="1197.89" waitingTime="82.00" waitingCount="2" stopTime="0.00" timeLoss="101.75" rerouteNo="0" devices="tripinfo_59" vType="DEFAULT_VEHTYPE" speedFactor="0.98" vaporized=""/>
    <tripinfo id="26" depart="130.00" departLane="top0A3_0" departPos="5.10" departSpeed="0.00" departDelay="0.00" arrival="489.00" arrivalLane="B0bottom1_0" arrivalPos="286.40" arrivalSpeed="12.98" duration="359.00" routeLength="1782.59" waitingTime="195.00" waitingCount="4" stopTime="0.00" timeLoss="226.39" rerouteNo="0" devices="tripinfo_26" vType="DEFAULT_VEHTYPE" speedFactor="0.98" vaporized=""/>
    <tripinfo id="56" depart="281.00" departLane="left1A1_0" departPos="5.10" departSpeed="0.00" departDelay="2.00" arrival="498.00" arrivalLane="D0bottom3_0" arrivalPos="286.40" arrivalSpeed="13.39" duration="217.00" routeLength="1780.11" waitingTime="68.00" waitingCount="1" stopTime="0.00" timeLoss="86.43" rerouteNo="0" devices="tripinfo_56" vType="DEFAULT_VEHTYPE" speedFactor="0.99" vaporized=""/>
    <tripinfo id="40" depart="207.00" departLane="bottom1B0_0" departPos="5.10" departSpeed="0.00" departDelay="0.00" arrival="500.00" arrivalLane="D2right2_0" arrivalPos="286.40" arrivalSpeed="13.57" duration="293.00" routeLength="1780.11" waitingTime="126.00" waitingCount="5" stopTime="0.00" timeLoss="162.29" rerouteNo="0" devices="tripinfo_40" vType="DEFAULT_VEHTYPE" speedFactor="0.99" vaporized=""/>
    <tripinfo id="64" depart="336.00" departLane="left2A2_0" departPos="5.10" departSpeed="0.00" departDelay="0.00" arrival="501.00" arrivalLane="D2right2_1" arrivalPos="286.40" arrivalSpeed="14.25" duration="165.00" routeLength="1495.58" waitingTime="28.00" waitingCount="4" stopTime="0.00" timeLoss="60.78" rerouteNo="0" devices="tripinfo_64" vType="DEFAULT_VEHTYPE" speedFactor="1.04" vaporized=""/>
    <tripinfo id="73" depart="369.00" departLane="top1B3_0" departPos="5.10" departSpeed="0.00" departDelay="0.00" arrival="502.00" arrivalLane="D2right2_0" arrivalPos="286.40" arrivalSpeed="14.36" duration="133.00" routeLength="1495.35" waitingTime="13.00" waitingCount="2" stopTime="0.00" timeLoss="35.02" rerouteNo="0" devices="tripinfo_73" vType="DEFAULT_VEHTYPE" speedFactor="1.11" vaporized=""/>
    <tripinfo id="76" depart="378.00" departLane="bottom3D0_0" departPos="5.10" departSpeed="0.00" departDelay="0.00" arrival="502.00" arrivalLane="C0bottom2_0" arrivalPos="286.40" arrivalSpeed="11.68" duration="124.00" routeLength="894.86" waitingTime="40.00" waitingCount="1" stopTime="0.00" timeLoss="52.06" rerouteNo="0" devices="tripinfo_76" vType="DEFAULT_VEHTYPE" speedFactor="0.91" vaporized=""/>
    <tripinfo id="85" depart="406.00" departLane="right3D3_0" departPos="5.10" departSpeed="0.00" departDelay="0.00" arrival="507.00" arrivalLane="D2right2_0" arrivalPos="286.40" arrivalSpeed="15.40" duration="101.00" routeLength="894.86" waitingTime="26.00" waitingCount="2" stopTime="0.00" timeLoss="44.26" rerouteNo="0" devices="tripinfo_85" vType="DEFAULT_VEHTYPE" speedFactor="1.15" vaporized=""/>
    <tripinfo id="51" depart="251.00" departLane="right1D1_0" departPos="5.10" departSpeed="0.00" departDelay="0.00" arrival="519.00" arrivalLane="A0bottom0_0" arrivalPos="286.40" arrivalSpeed="12.86" duration="268.00" routeLength="1795.52" waitingTime="100.00" waitingCount="5" stopTime="0.00" timeLoss="139.68" rerouteNo="0" devices="tripinfo_51" vType="DEFAULT_VEHTYPE" speedFactor="1.01" vaporized=""/>
    <tripinfo id="104" depart="464.00" departLane="left3A3_0" departPos="5.10" departSpeed="0.00" departDelay="0.00" arrival="530.00" arrivalLane="A3top0_1" arrivalPos="286.40" arrivalSpeed="14.06" duration="66.00" routeLength="597.55" waitingTime="14.00" waitingCount="1" stopTime="0.00" timeLoss="24.63" rerouteNo="0" devices="tripinfo_104" vType="DEFAULT_VEHTYPE" speedFactor="1.06" vaporized=""/>
    <tripinfo id="99" depart="450.00" departLane="left3A3_0" departPos="5.10" departSpeed="0.00" departDelay="0.00" arrival="531.00" arrivalLane="A3top0_0" arrivalPos="286.40" arrivalSpeed="11.94" duration="81.00" routeLength="597.55" waitingTime="24.00" waitingCount="1" stopTime="0.00" timeLoss="34.43" rerouteNo="0" devices="tripinfo_99" vType="DEFAULT_VEHTYPE" speedFactor="0.94" vaporized=""/>
    <tripinfo id="58" depart="289.00" departLane="bottom1B0_0" departPos="5.10" departSpeed="0.00" departDelay="0.00" arrival="532.00" arrivalLane="B0bottom1_0" arrivalPos="286.40" arrivalSpeed="11.71" duration="243.00" routeLength="1748.75" waitingTime="68.00" waitingCount="4" stopTime="0.00" timeLoss="101.61" rerouteNo="0" devices="tripinfo_58" vType="DEFAULT_VEHTYPE" speedFactor="0.91" vaporized=""/>
    <tripinfo id="81" depart="395.00" departLane="bottom3D0_0" departPos="5.10" departSpeed="0.00" departDelay="0.00" arrival="532.00" arrivalLane="D2right2_0" arrivalPos="286.40" arrivalSpeed="11.58" duration="137.00" routeLength="1177.07" waitingTime="21.00" waitingCount="3" stopTime="0.00" timeLoss="43.77" rerouteNo="0" devices="tripinfo_81" vType="DEFAULT_VEHTYPE" speedFactor="0.92" vaporized=""/>
    <tripinfo id="95" depart="431.00" departLane="top2C3_0" departPos="5.10" departSpeed="0.00" departDelay="0.00" arrival="542.00" arrivalLane="A3top0_0" arrivalPos="286.40" arrivalSpeed="12.90" duration="111.00" routeLength="1161.43" waitingTime="9.00" waitingCount="2" stopTime="0.00" timeLoss="28.02" rerouteNo="0" devices="tripinfo_95" vType="DEFAULT_VEHTYPE" speedFactor="1.02" vaporized=""/>
    <tripinfo id="105" depart="465.00" departLane="right1D1_0" departPos="5.10" departSpeed="0.00" departDelay="0.00" arrival="543.00" arrivalLane="D2right2_0" arrivalPos="286.40" arrivalSpeed="13.31" duration="78.00" routeLength="858.56" waitingTime="2.00" waitingCount="2" stopTime="0.00" timeLoss="16.86" rerouteNo="0" devices="tripinfo_105" vType="DEFAULT_VEHTYPE" speedFactor="1.04" vaporized=""/>
    <tripinfo id="84" depart="401.00" departLane="right3D3_0" departPos="5.10" departSpeed="0.00" departDelay="0.00" arrival="548.00" arrivalLane="B3top1_0" arrivalPos="286.40" arrivalSpeed="13.77" duration="147.00" routeLength="1177.07" waitingTime="36.00" waitingCount="3" stopTime="0.00" timeLoss="63.14" rerouteNo="0" devices="tripinfo_84" vType="DEFAULT_VEHTYPE" speedFactor="1.03" vaporized=""/>
    <tripinfo id="86" depart="407.00" departLane="left2A2_0" departPos="5.10" departSpeed="0.00" departDelay="0.00" arrival="550.00" arrivalLane="D2right2_0" arrivalPos="286.40" arrivalSpeed="13.34" duration="143.00" routeLength="1495.58" waitingTime="6.00" waitingCount="2" stopTime="0.00" timeLoss="31.68" rerouteNo="0" devices="tripinfo_86" vType="DEFAULT_VEHTYPE" speedFactor="0.97" vaporized=""/>
    <tripinfo id="91" depart="419.00" departLane="top0A3_0" departPos="5.10" departSpeed="0.00" departDelay="0.00" arrival="557.00" arrivalLane="A1left1_0" arrivalPos="286.40" arrivalSpeed="12.35" duration="138.00" routeLength="1177.07" waitingTime="27.00" waitingCount="3" stopTime="0.00" timeLoss="50.83" rerouteNo="0" devices="tripinfo_91" vType="DEFAULT_VEHTYPE" speedFactor="0.98" vaporized=""/>
    <tripinfo id="18" depart="104.00" departLane="left1A1_0" departPos="5.10" departSpeed="0.00" departDelay="0.00" arrival="559.00" arrivalLane="D3right3_0" arrivalPos="286.40" arrivalSpeed="14.06" duration="455.00" routeLength="2080.05" waitingTime="265.00" waitingCount="6" stopTime="0.00" timeLoss="306.13" rerouteNo="0" devices="tripinfo_18" vType="DEFAULT_VEHTYPE" speedFactor="1.02" vaporized=""/>
    <tripinfo id="60" depart="295.00" departLane="bottom2C0_0" departPos="5.10" departSpeed="0.00" departDelay="0.00" arrival="566.00" arrivalLane="A1left1_0" arrivalPos="286.40" arrivalSpeed="15.64" duration="271.00" routeLength="1495.35" waitingTime="155.00" waitingCount="3" stopTime="0.00" timeLoss="181.45" rerouteNo="0" devices="tripinfo_60" vType="DEFAULT_VEHTYPE" speedFactor="1.21" vaporized=""/>
    <tripinfo id="75" depart="372.00" departLane="top2C3_0" departPos="5.10" departSpeed="0.00" departDelay="0.00" arrival="572.00" arrivalLane="A2left2_0" arrivalPos="286.40" arrivalSpeed="13.61" duration="200.00" routeLength="1479.94" waitingTime="68.00" waitingCount="3" stopTime="0.00" timeLoss="92.76" rerouteNo="0" devices="tripinfo_75" vType="DEFAULT_VEHTYPE" speedFactor="1.00" vaporized=""/>