<?xml version="1.0" encoding="UTF-8"?>

<!-- generated on 12/10/21 12:15:57 by Eclipse SUMO sumo Version 1.7.0
<configuration xmlns:xsi="http://www.w3.org/2001/XMLSchema-instance" xsi:noNamespaceSchemaLocation="http://sumo.dlr.de/xsd/sumoConfiguration.xsd">

    <input>
        <net-file value="C:\Users\longs\Desktop\RESCO-main\environments\grid4x4\grid4x4.net.xml"/>
        <route-files value="C:\Users\longs\Desktop\RESCO-main\environments\grid4x4\grid4x4_72.rou.xml"/>
    </input>

    <output>
        <tripinfo-output value="C:\Users\longs\Desktop\RESCO-main\logs\IDQN-tr1-grid4x4-0-drqlong-delaydiff_pressure\tripinfo_72.xml"/>
        <tripinfo-output.write-unfinished value="true"/>
    </output>

    <processing>
        <time-to-teleport value="-1"/>
    </processing>

    <report>
        <no-warnings value="true"/>
        <no-step-log value="true"/>
    </report>

    <traci_server>
        <remote-port value="55326"/>
    </traci_server>

    <random_number>
        <random value="true"/>
    </random_number>

</configuration>
-->

<tripinfos xmlns:xsi="http://www.w3.org/2001/XMLSchema-instance" xsi:noNamespaceSchemaLocation="http://sumo.dlr.de/xsd/tripinfo_file.xsd">
    <tripinfo id="0" depart="3.00" departLane="bottom0A0_0" departPos="5.10" departSpeed="0.00" departDelay="0.00" arrival="118.00" arrivalLane="A1left1_0" arrivalPos="286.40" arrivalSpeed="13.28" duration="115.00" routeLength="897.72" waitingTime="35.00" waitingCount="2" stopTime="0.00" timeLoss="51.59" rerouteNo="0" devices="tripinfo_0" vType="DEFAULT_VEHTYPE" speedFactor="1.03" vaporized=""/>
    <tripinfo id="1" depart="3.00" departLane="right2D2_0" departPos="5.10" departSpeed="0.00" departDelay="0.00" arrival="139.00" arrivalLane="D0bottom3_0" arrivalPos="286.40" arrivalSpeed="13.46" duration="136.00" routeLength="1195.18" waitingTime="28.00" waitingCount="3" stopTime="0.00" timeLoss="50.16" rerouteNo="0" devices="tripinfo_1" vType="DEFAULT_VEHTYPE" speedFactor="1.02" vaporized=""/>
    <tripinfo id="5" depart="23.00" departLane="right0D0_0" departPos="5.10" departSpeed="0.00" departDelay="0.00" arrival="151.00" arrivalLane="B0bottom1_0" arrivalPos="286.40" arrivalSpeed="11.95" duration="128.00" routeLength="1197.89" waitingTime="13.00" waitingCount="2" stopTime="0.00" timeLoss="36.17" rerouteNo="0" devices="tripinfo_5" vType="DEFAULT_VEHTYPE" speedFactor="0.95" vaporized=""/>
    <tripinfo id="6" depart="36.00" departLane="bottom2C0_0" departPos="5.10" departSpeed="0.00" departDelay="0.00" arrival="155.00" arrivalLane="D1right1_0" arrivalPos="286.40" arrivalSpeed="12.69" duration="119.00" routeLength="1179.77" waitingTime="9.00" waitingCount="2" stopTime="0.00" timeLoss="26.60" rerouteNo="0" devices="tripinfo_6" vType="DEFAULT_VEHTYPE" speedFactor="0.93" vaporized=""/>
    <tripinfo id="4" depart="17.00" departLane="right0D0_0" departPos="5.10" departSpeed="0.00" departDelay="0.00" arrival="167.00" arrivalLane="A0bottom0_0" arrivalPos="286.40" arrivalSpeed="10.75" duration="150.00" routeLength="1498.06" waitingTime="3.00" waitingCount="1" stopTime="0.00" timeLoss="20.45" rerouteNo="0" devices="tripinfo_4" vType="DEFAULT_VEHTYPE" speedFactor="0.84" vaporized=""/>
    <tripinfo id="12" depart="48.00" departLane="left0A0_0" departPos="5.10" departSpeed="0.00" departDelay="0.00" arrival="167.00" arrivalLane="A2left2_0" arrivalPos="286.40" arrivalSpeed="14.43" duration="119.00" routeLength="1197.66" waitingTime="21.00" waitingCount="2" stopTime="0.00" timeLoss="40.76" rerouteNo="0" devices="tripinfo_12" vType="DEFAULT_VEHTYPE" speedFactor="1.12" vaporized=""/>
    <tripinfo id="17" depart="63.00" departLane="top1B3_0" departPos="5.10" departSpeed="0.00" departDelay="0.00" arrival="169.00" arrivalLane="C3top2_0" arrivalPos="286.40" arrivalSpeed="13.10" duration="106.00" routeLength="894.86" waitingTime="25.00" waitingCount="2" stopTime="0.00" timeLoss="40.96" rerouteNo="0" devices="tripinfo_17" vType="DEFAULT_VEHTYPE" speedFactor="1.01" vaporized=""/>
    <tripinfo id="3" depart="7.00" departLane="bottom0A0_0" departPos="5.10" departSpeed="0.00" departDelay="0.00" arrival="170.00" arrivalLane="A3left3_0" arrivalPos="286.40" arrivalSpeed="12.84" duration="163.00" routeLength="1498.06" waitingTime="22.00" waitingCount="3" stopTime="0.00" timeLoss="49.37" rerouteNo="0" devices="tripinfo_3" vType="DEFAULT_VEHTYPE" speedFactor="0.96" vaporized=""/>
    <tripinfo id="7" depart="37.00" departLane="bottom0A0_0" departPos="5.10" departSpeed="0.00" departDelay="0.00" arrival="181.00" arrivalLane="D0right0_0" arrivalPos="286.40" arrivalSpeed="11.75" duration="144.00" routeLength="1479.94" waitingTime="7.00" waitingCount="2" stopTime="0.00" timeLoss="25.68" rerouteNo="0" devices="tripinfo_7" vType="DEFAULT_VEHTYPE" speedFactor="0.91" vaporized=""/>
    <tripinfo id="19" depart="72.00" departLane="left0A0_0" departPos="5.10" departSpeed="0.00" departDelay="0.00" arrival="190.00" arrivalLane="A1left1_0" arrivalPos="286.40" arrivalSpeed="13.01" duration="118.00" routeLength="894.86" waitingTime="34.00" waitingCount="2" stopTime="0.00" timeLoss="50.01" rerouteNo="0" devices="tripinfo_19" vType="DEFAULT_VEHTYPE" speedFactor="0.97" vaporized=""/>
    <tripinfo id="22" depart="87.00" departLane="right0D0_0" departPos="5.10" departSpeed="0.00" departDelay="0.00" arrival="195.00" arrivalLane="D2right2_0" arrivalPos="286.40" arrivalSpeed="14.43" duration="108.00" routeLength="1161.43" waitingTime="9.00" waitingCount="2" stopTime="0.00" timeLoss="27.28" rerouteNo="0" devices="tripinfo_22" vType="DEFAULT_VEHTYPE" speedFactor="1.06" vaporized=""/>
    <tripinfo id="2" depart="5.00" departLane="top0A3_0" departPos="5.10" departSpeed="0.00" departDelay="0.00" arrival="201.00" arrivalLane="D2right2_0" arrivalPos="286.40" arrivalSpeed="13.05" duration="196.00" routeLength="1795.52" waitingTime="28.00" waitingCount="4" stopTime="0.00" timeLoss="58.00" rerouteNo="0" devices="tripinfo_2" vType="DEFAULT_VEHTYPE" speedFactor="0.95" vaporized=""/>
    <tripinfo id="31" depart="123.00" departLane="bottom2C0_0" departPos="5.10" departSpeed="0.00" departDelay="0.00" arrival="209.00" arrivalLane="D0right0_0" arrivalPos="286.40" arrivalSpeed="13.42" duration="86.00" routeLength="879.60" waitingTime="6.00" waitingCount="2" stopTime="0.00" timeLoss="22.49" rerouteNo="0" devices="tripinfo_31" vType="DEFAULT_VEHTYPE" speedFactor="1.01" vaporized=""/>
    <tripinfo id="10" depart="45.00" departLane="left3A3_0" departPos="5.10" departSpeed="0.00" departDelay="0.00" arrival="213.00" arrivalLane="C3top2_0" arrivalPos="286.40" arrivalSpeed="11.42" duration="168.00" routeLength="1197.89" waitingTime="45.00" waitingCount="3" stopTime="0.00" timeLoss="70.53" rerouteNo="0" devices="tripinfo_10" vType="DEFAULT_VEHTYPE" speedFactor="0.90" vaporized=""/>
    <tripinfo id="9" depart="45.00" departLane="top1B3_0" departPos="5.10" departSpeed="0.00" departDelay="0.00" arrival="219.00" arrivalLane="A0bottom0_1" arrivalPos="286.40" arrivalSpeed="14.72" duration="174.00" routeLength="1782.72" waitingTime="25.00" waitingCount="3" stopTime="0.00" timeLoss="55.35" rerouteNo="0" devices="tripinfo_9" vType="DEFAULT_VEHTYPE" speedFactor="1.09" vaporized=""/>
    <tripinfo id="27" depart="111.00" departLane="bottom0A0_0" departPos="5.10" departSpeed="0.00" departDelay="0.00" arrival="220.00" arrivalLane="C0bottom2_0" arrivalPos="286.40" arrivalSpeed="11.41" duration="109.00" routeLength="1161.43" waitingTime="1.00" waitingCount="1" stopTime="0.00" timeLoss="15.20" rerouteNo="0" devices="tripinfo_27" vType="DEFAULT_VEHTYPE" speedFactor="0.91" vaporized=""/>
    <tripinfo id="14" depart="56.00" departLane="left3A3_0" departPos="5.10" departSpeed="0.00" departDelay="0.00" arrival="221.00" arrivalLane="A0bottom0_0" arrivalPos="286.40" arrivalSpeed="11.75" duration="165.00" routeLength="1479.94" waitingTime="29.00" waitingCount="2" stopTime="0.00" timeLoss="48.65" rerouteNo="0" devices="tripinfo_14" vType="DEFAULT_VEHTYPE" speedFactor="0.93" vaporized=""/>
    <tripinfo id="25" depart="103.00" departLane="top0A3_0" departPos="5.10" departSpeed="0.00" departDelay="0.00" arrival="223.00" arrivalLane="A0left0_0" arrivalPos="286.40" arrivalSpeed="13.64" duration="120.00" routeLength="1477.24" waitingTime="3.00" waitingCount="1" stopTime="0.00" timeLoss="18.70" rerouteNo="0" devices="tripinfo_25" vType="DEFAULT_VEHTYPE" speedFactor="1.06" vaporized=""/>
    <tripinfo id="37" depart="146.00" departLane="right1D1_0" departPos="5.10" departSpeed="0.00" departDelay="0.00" arrival="224.00" arrivalLane="D2right2_0" arrivalPos="286.40" arrivalSpeed="12.34" duration="78.00" routeLength="858.56" waitingTime="1.00" waitingCount="1" stopTime="0.00" timeLoss="13.87" rerouteNo="0" devices="tripinfo_37" vType="DEFAULT_VEHTYPE" speedFactor="0.98" vaporized=""/>
    <tripinfo id="41" depart="166.00" departLane="bottom0A0_0" departPos="5.10" departSpeed="0.00" departDelay="0.00" arrival="227.00" arrivalLane="A0left0_0" arrivalPos="286.40" arrivalSpeed="15.38" duration="61.00" routeLength="597.55" waitingTime="11.00" waitingCount="1" stopTime="0.00" timeLoss="21.88" rerouteNo="0" devices="tripinfo_41" vType="DEFAULT_VEHTYPE" speedFactor="1.13" vaporized=""/>
    <tripinfo id="30" depart="122.00" departLane="top2C3_0" departPos="5.10" departSpeed="0.00" departDelay="0.00" arrival="228.00" arrivalLane="A3top0_0" arrivalPos="286.40" arrivalSpeed="12.84" duration="106.00" routeLength="1161.43" waitingTime="2.00" waitingCount="2" stopTime="0.00" timeLoss="17.98" rerouteNo="0" devices="tripinfo_30" vType="DEFAULT_VEHTYPE" speedFactor="0.97" vaporized=""/>
    <tripinfo id="16" depart="61.00" departLane="right0D0_0" departPos="5.10" departSpeed="0.00" departDelay="0.00" arrival="252.00" arrivalLane="D0right0_0" arrivalPos="286.40" arrivalSpeed="11.67" duration="191.00" routeLength="1748.75" waitingTime="17.00" waitingCount="3" stopTime="0.00" timeLoss="46.73" rerouteNo="0" devices="tripinfo_16" vType="DEFAULT_VEHTYPE" speedFactor="0.89" vaporized=""/>
    <tripinfo id="13" depart="50.00" departLane="bottom1B0_0" departPos="5.10" departSpeed="0.00" departDelay="0.00" arrival="260.00" arrivalLane="D2right2_0" arrivalPos="286.40" arrivalSpeed="13.14" duration="210.00" routeLength="1780.11" waitingTime="40.00" waitingCount="5" stopTime="0.00" timeLoss="75.81" rerouteNo="0" devices="tripinfo_13" vType="DEFAULT_VEHTYPE" speedFactor="0.96" vaporized=""/>
    <tripinfo id="46" depart="189.00" departLane="left0A0_0" departPos="5.10" departSpeed="0.00" departDelay="0.00" arrival="269.00" arrivalLane="A1left1_0" arrivalPos="286.40" arrivalSpeed="13.89" duration="80.00" routeLength="894.86" waitingTime="5.00" waitingCount="1" stopTime="0.00" timeLoss="15.19" rerouteNo="0" devices="tripinfo_46" vType="DEFAULT_VEHTYPE" speedFactor="1.02" vaporized=""/>
    <tripinfo id="18" depart="72.00" departLane="top1B3_0" departPos="5.10" departSpeed="0.00" departDelay="0.00" arrival="270.00" arrivalLane="C0bottom2_0" arrivalPos="286.40" arrivalSpeed="12.30" duration="198.00" routeLength="1782.59" waitingTime="32.00" waitingCount="4" stopTime="0.00" timeLoss="64.32" rerouteNo="0" devices="tripinfo_18" vType="DEFAULT_VEHTYPE" speedFactor="0.97" vaporized=""/>
    <tripinfo id="26" depart="108.00" departLane="top3D3_0" departPos="5.10" departSpeed="0.00" departDelay="0.00" arrival="270.00" arrivalLane="D0right0_0" arrivalPos="286.40" arrivalSpeed="13.42" duration="162.00" routeLength="1498.06" waitingTime="20.00" waitingCount="2" stopTime="0.00" timeLoss="49.57" rerouteNo="0" devices="tripinfo_26" vType="DEFAULT_VEHTYPE" speedFactor="0.97" vaporized=""/>
    <tripinfo id="29" depart="118.00" departLane="right3D3_0" departPos="5.10" departSpeed="0.00" departDelay="0.00" arrival="277.00" arrivalLane="D3right3_0" arrivalPos="286.40" arrivalSpeed="14.39" duration="159.00" routeLength="1745.91" waitingTime="12.00" waitingCount="3" stopTime="0.00" timeLoss="41.05" rerouteNo="0" devices="tripinfo_29" vType="DEFAULT_VEHTYPE" speedFactor="1.09" vaporized=""/>
    <tripinfo id="28" depart="112.00" departLane="bottom2C0_0" departPos="5.10" departSpeed="0.00" departDelay="0.00" arrival="281.00" arrivalLane="D2right2_0" arrivalPos="286.40" arrivalSpeed="12.59" duration="169.00" routeLength="1479.94" waitingTime="29.00" waitingCount="3" stopTime="0.00" timeLoss="55.54" rerouteNo="0" devices="tripinfo_28" vType="DEFAULT_VEHTYPE" speedFactor="0.95" vaporized=""/>
    <tripinfo id="45" depart="183.00" departLane="left1A1_0" departPos="5.10" departSpeed="0.00" departDelay="0.00" arrival="291.00" arrivalLane="A2left2_0" arrivalPos="286.40" arrivalSpeed="12.64" duration="108.00" routeLength="894.86" waitingTime="21.00" waitingCount="1" stopTime="0.00" timeLoss="37.86" rerouteNo="0" devices="tripinfo_45" vType="DEFAULT_VEHTYPE" speedFactor="0.94" vaporized=""/>
    <tripinfo id="50" depart="199.00" departLane="top0A3_0" departPos="5.10" departSpeed="0.00" departDelay="0.00" arrival="291.00" arrivalLane="A1left1_0" arrivalPos="286.40" arrivalSpeed="15.48" duration="92.00" routeLength="1177.07" waitingTime="1.00" waitingCount="1" stopTime="0.00" timeLoss="18.65" rerouteNo="0" devices="tripinfo_50" vType="DEFAULT_VEHTYPE" speedFactor="1.16" vaporized=""/>
    <tripinfo id="44" depart="177.00" departLane="bottom1B0_0" departPos="5.10" departSpeed="0.00" departDelay="0.00" arrival="298.00" arrivalLane="D0right0_0" arrivalPos="286.40" arrivalSpeed="13.93" duration="121.00" routeLength="1179.77" waitingTime="17.00" waitingCount="3" stopTime="0.00" timeLoss="39.37" rerouteNo="0" devices="tripinfo_44" vType="DEFAULT_VEHTYPE" speedFactor="1.06" vaporized=""/>
    <tripinfo id="38" depart="147.00" departLane="bottom0A0_0" departPos="5.10" departSpeed="0.00" departDelay="0.00" arrival="300.00" arrivalLane="D0bottom3_0" arrivalPos="286.40" arrivalSpeed="10.84" duration="153.00" routeLength="1461.60" waitingTime="2.00" waitingCount="2" stopTime="0.00" timeLoss="21.27" rerouteNo="0" devices="tripinfo_38" vType="DEFAULT_VEHTYPE" speedFactor="0.81" vaporized=""/>
    <tripinfo id="33" depart="125.00" departLane="top2C3_0" departPos="5.10" departSpeed="0.00" departDelay="0.00" arrival="302.00" arrivalLane="A2left2_1" arrivalPos="286.40" arrivalSpeed="12.43" duration="177.00" routeLength="1479.94" waitingTime="32.00" waitingCount="4" stopTime="0.00" timeLoss="65.39" rerouteNo="0" devices="tripinfo_33" vType="DEFAULT_VEHTYPE" speedFactor="0.96" vaporized=""/>
    <tripinfo id="8" depart="43.00" departLane="bottom3D0_0" departPos="5.10" departSpeed="0.00" departDelay="0.00" arrival="304.00" arrivalLane="A2left2_0" arrivalPos="286.40" arrivalSpeed="11.11" duration="261.00" routeLength="2095.69" waitingTime="40.00" waitingCount="5" stopTime="0.00" timeLoss="76.56" rerouteNo="0" devices="tripinfo_8" vType="DEFAULT_VEHTYPE" speedFactor="0.82" vaporized=""/>
    <tripinfo id="34" depart="128.00" departLane="right0D0_0" departPos="5.10" departSpeed="0.00" departDelay="0.00" arrival="305.00" arrivalLane="B3top1_0" arrivalPos="286.40" arrivalSpeed="16.33" duration="177.00" routeLength="2080.28" waitingTime="17.00" waitingCount="3" stopTime="0.00" timeLoss="52.15" rerouteNo="0" devices="tripinfo_34" vType="DEFAULT_VEHTYPE" speedFactor="1.21" vaporized=""/>
    <tripinfo id="43" depart="173.00" departLane="top2C3_0" departPos="5.10" departSpeed="0.00" departDelay="0.00" arrival="309.00" arrivalLane="D2right2_0" arrivalPos="286.40" arrivalSpeed="13.17" duration="136.00" routeLength="1195.18" waitingTime="32.00" waitingCount="2" stopTime="0.00" timeLoss="50.47" rerouteNo="0" devices="tripinfo_43" vType="DEFAULT_VEHTYPE" speedFactor="1.02" vaporized=""/>
    <tripinfo id="21" depart="81.00" departLane="top3D3_0" departPos="5.10" departSpeed="0.00" departDelay="0.00" arrival="310.00" arrivalLane="A0left0_0" arrivalPos="286.40" arrivalSpeed="12.38" duration="229.00" routeLength="2380.45" waitingTime="14.00" waitingCount="2" stopTime="0.00" timeLoss="41.74" rerouteNo="0" devices="tripinfo_21" vType="DEFAULT_VEHTYPE" speedFactor="0.92" vaporized=""/>
    <tripinfo id="23" depart="89.00" departLane="right3D3_0" departPos="5.10" departSpeed="0.00" departDelay="0.00" arrival="311.00" arrivalLane="C0bottom2_0" arrivalPos="286.40" arrivalSpeed="11.95" duration="222.00" routeLength="1795.52" waitingTime="41.00" waitingCount="4" stopTime="0.00" timeLoss="72.99" rerouteNo="0" devices="tripinfo_23" vType="DEFAULT_VEHTYPE" speedFactor="0.87" vaporized=""/>
    <tripinfo id="39" depart="148.00" departLane="top1B3_0" departPos="5.10" departSpeed="0.00" departDelay="0.00" arrival="320.00" arrivalLane="C0bottom2_0" arrivalPos="286.40" arrivalSpeed="13.64" duration="172.00" routeLength="1782.59" waitingTime="17.00" waitingCount="4" stopTime="0.00" timeLoss="49.25" rerouteNo="0" devices="tripinfo_39" vType="DEFAULT_VEHTYPE" speedFactor="1.06" vaporized=""/>
    <tripinfo id="20" depart="80.00" departLane="left3A3_0" departPos="5.10" departSpeed="0.00" departDelay="0.00" arrival="321.00" arrivalLane="D1right1_1" arrivalPos="286.40" arrivalSpeed="13.72" duration="241.00" routeLength="2082.76" waitingTime="50.00" waitingCount="5" stopTime="0.00" timeLoss="97.06" rerouteNo="0" devices="tripinfo_20" vType="DEFAULT_VEHTYPE" speedFactor="1.05" vaporized=""/>
    <tripinfo id="11" depart="48.00" departLane="left3A3_0" departPos="5.10" departSpeed="0.00" departDelay="2.00" arrival="322.00" arrivalLane="D1right1_0" arrivalPos="286.40" arrivalSpeed="11.72" duration="274.00" routeLength="2082.76" waitingTime="64.00" waitingCount="5" stopTime="0.00" timeLoss="108.75" rerouteNo="0" devices="tripinfo_11" vType="DEFAULT_VEHTYPE" speedFactor="0.92" vaporized=""/>
    <tripinfo id="56" depart="230.00" departLane="right2D2_0" departPos="5.10" departSpeed="0.00" departDelay="0.00" arrival="323.00" arrivalLane="D1right1_1" arrivalPos="286.40" arrivalSpeed="13.26" duration="93.00" routeLength="894.86" waitingTime="16.00" waitingCount="1" stopTime="0.00" timeLoss="29.73" rerouteNo="0" devices="tripinfo_56" vType="DEFAULT_VEHTYPE" speedFactor="1.05" vaporized=""/>
    <tripinfo id="52" depart="202.00" departLane="bottom1B0_0" departPos="5.10" departSpeed="0.00" departDelay="0.00" arrival="338.00" arrivalLane="A2left2_1" arrivalPos="286.40" arrivalSpeed="15.29" duration="136.00" routeLength="1495.35" waitingTime="13.00" waitingCount="3" stopTime="0.00" timeLoss="42.44" rerouteNo="0" devices="tripinfo_52" vType="DEFAULT_VEHTYPE" speedFactor="1.16" vaporized=""/>
    <tripinfo id="55" depart="221.00" departLane="top1B3_0" departPos="5.10" departSpeed="0.00" departDelay="0.00" arrival="338.00" arrivalLane="A2left2_0" arrivalPos="286.40" arrivalSpeed="13.61" duration="117.00" routeLength="1179.77" waitingTime="11.00" waitingCount="3" stopTime="0.00" timeLoss="34.77" rerouteNo="0" devices="tripinfo_55" vType="DEFAULT_VEHTYPE" speedFactor="1.05" vaporized=""/>
    <tripinfo id="36" depart="145.00" departLane="top3D3_0" departPos="5.10" departSpeed="0.00" departDelay="0.00" arrival="339.00" arrivalLane="B0bottom1_0" arrivalPos="286.40" arrivalSpeed="13.85" duration="194.00" routeLength="2082.76" waitingTime="15.00" waitingCount="3" stopTime="0.00" timeLoss="43.04" rerouteNo="0" devices="tripinfo_36" vType="DEFAULT_VEHTYPE" speedFactor="1.00" vaporized=""/>
    <tripinfo id="47" depart="191.00" departLane="left3A3_0" departPos="5.10" departSpeed="0.00" departDelay="0.00" arrival="345.00" arrivalLane="A0left0_0" arrivalPos="286.40" arrivalSpeed="11.40" duration="154.00" routeLength="1461.60" waitingTime="11.00" waitingCount="3" stopTime="0.00" timeLoss="35.73" rerouteNo="0" devices="tripinfo_47" vType="DEFAULT_VEHTYPE" speedFactor="0.90" vaporized=""/>
    <tripinfo id="68" depart="289.00" departLane="right3D3_0" departPos="5.10" departSpeed="0.00" departDelay="0.00" arrival="347.00" arrivalLane="D3top3_0" arrivalPos="286.40" arrivalSpeed="12.46" duration="58.00" routeLength="576.73" waitingTime="1.00" waitingCount="1" stopTime="0.00" timeLoss="11.10" rerouteNo="0" devices="tripinfo_68" vType="DEFAULT_VEHTYPE" speedFactor="0.91" vaporized=""/>
    <tripinfo id="49" depart="197.00" departLane="bottom1B0_0" departPos="5.10" departSpeed="0.00" departDelay="0.00" arrival="353.00" arrivalLane="D1right1_0" arrivalPos="286.40" arrivalSpeed="10.97" duration="156.00" routeLength="1479.94" waitingTime="10.00" waitingCount="2" stopTime="0.00" timeLoss="31.36" rerouteNo="0" devices="tripinfo_49" vType="DEFAULT_VEHTYPE" speedFactor="0.86" vaporized=""/>
    <tripinfo id="24" depart="94.00" departLane="top3D3_0" departPos="5.10" departSpeed="0.00" departDelay="0.00" arrival="356.00" arrivalLane="A0bottom0_0" arrivalPos="286.40" arrivalSpeed="12.01" duration="262.00" routeLength="2382.93" waitingTime="28.00" waitingCount="4" stopTime="0.00" timeLoss="64.65" rerouteNo="0" devices="tripinfo_24" vType="DEFAULT_VEHTYPE" speedFactor="0.88" vaporized=""/>
    <tripinfo id="35" depart="140.00" departLane="top0A3_0" departPos="5.10" departSpeed="0.00" departDelay="0.00" arrival="357.00" arrivalLane="D0bottom3_0" arrivalPos="286.40" arrivalSpeed="14.53" duration="217.00" routeLength="2380.22" waitingTime="29.00" waitingCount="4" stopTime="0.00" timeLoss="60.31" rerouteNo="0" devices="tripinfo_35" vType="DEFAULT_VEHTYPE" speedFactor="1.10" vaporized=""/>
    <tripinfo id="54" depart="220.00" departLane="top0A3_0" departPos="5.10" departSpeed="0.00" departDelay="0.00" arrival="359.00" arrivalLane="A0bottom0_1" arrivalPos="286.40" arrivalSpeed="16.10" duration="139.00" routeLength="1495.58" waitingTime="26.00" waitingCount="2" stopTime="0.00" timeLoss="48.33" rerouteNo="0" devices="tripinfo_54" vType="DEFAULT_VEHTYPE" speedFactor="1.19" vaporized=""/>
    <tripinfo id="48" depart="192.00" departLane="bottom2C0_0" departPos="5.10" departSpeed="0.00" departDelay="0.00" arrival="360.00" arrivalLane="D2right2_0" arrivalPos="286.40" arrivalSpeed="11.75" duration="168.00" routeLength="1479.94" waitingTime="23.00" waitingCount="4" stopTime="0.00" timeLoss="53.29" rerouteNo="0" devices="tripinfo_48" vType="DEFAULT_VEHTYPE" speedFactor="0.94" vaporized=""/>
    <tripinfo id="58" depart="253.00" departLane="top0A3_0" departPos="5.10" departSpeed="0.00" departDelay="0.00" arrival="361.00" arrivalLane="B3top1_0" arrivalPos="286.40" arrivalSpeed="12.71" duration="108.00" routeLength="894.86" waitingTime="24.00" waitingCount="2" stopTime="0.00" timeLoss="40.28" rerouteNo="0" devices="tripinfo_58" vType="DEFAULT_VEHTYPE" speedFactor="0.97" vaporized=""/>
    <tripinfo id="42" depart="169.00" departLane="bottom3D0_0" departPos="5.10" departSpeed="0.00" departDelay="0.00" arrival="367.00" arrivalLane="A2left2_0" arrivalPos="286.40" arrivalSpeed="14.06" duration="198.00" routeLength="2095.69" waitingTime="33.00" waitingCount="3" stopTime="0.00" timeLoss="58.51" rerouteNo="0" devices="tripinfo_42" vType="DEFAULT_VEHTYPE" speedFactor="1.09" vaporized=""/>
    <tripinfo id="15" depart="60.00" departLane="right2D2_0" departPos="5.10" departSpeed="0.00" departDelay="0.00" arrival="370.00" arrivalLane="A0bottom0_0" arrivalPos="286.40" arrivalSpeed="9.40" duration="310.00" routeLength="2095.69" waitingTime="55.00" waitingCount="5" stopTime="0.00" timeLoss="88.85" rerouteNo="0" devices="tripinfo_15" vType="DEFAULT_VEHTYPE" speedFactor="0.69" vaporized=""/>
    <tripinfo id="32" depart="123.00" departLane="bottom0A0_0" departPos="5.10" departSpeed="0.00" departDelay="0.00" arrival="371.00" arrivalLane="C3top2_0" arrivalPos="286.40" arrivalSpeed="12.53" duration="248.00" routeLength="2082.76" waitingTime="53.00" waitingCount="3" stopTime="0.00" timeLoss="85.07" rerouteNo="0" devices="tripinfo_32" vType="DEFAULT_VEHTYPE" speedFactor="0.93" vaporized=""/>
    <tripinfo id="64" depart="274.00" departLane="top3D3_0" departPos="5.10" departSpeed="0.00" departDelay="0.00" arrival="372.00" arrivalLane="D2right2_0" arrivalPos="286.40" arrivalSpeed="12.32" duration="98.00" routeLength="897.72" waitingTime="15.00" waitingCount="1" stopTime="0.00" timeLoss="27.33" rerouteNo="0" devices="tripinfo_64" vType="DEFAULT_VEHTYPE" speedFactor="0.93" vaporized=""/>
    <tripinfo id="70" depart="305.00" departLane="left2A2_0" departPos="5.10" departSpeed="0.00" departDelay="0.00" arrival="380.00" arrivalLane="A1left1_0" arrivalPos="286.40" arrivalSpeed="14.00" duration="75.00" routeLength="858.56" waitingTime="2.00" waitingCount="2" stopTime="0.00" timeLoss="16.11" rerouteNo="0" devices="tripinfo_70" vType="DEFAULT_VEHTYPE" speedFactor="1.07" vaporized=""/>
    <tripinfo id="66" depart="282.00" departLane="left2A2_0" departPos="5.10" departSpeed="0.00" departDelay="0.00" arrival="388.00" arrivalLane="A3left3_0" arrivalPos="286.40" arrivalSpeed="14.02" duration="106.00" routeLength="894.86" waitingTime="29.00" waitingCount="2" stopTime="0.00" timeLoss="44.58" rerouteNo="0" devices="tripinfo_66" vType="DEFAULT_VEHTYPE" speedFactor="1.08" vaporized=""/>
    <tripinfo id="75" depart="313.00" departLane="left2A2_0" departPos="5.10" departSpeed="0.00" departDelay="0.00" arrival="389.00" arrivalLane="A3left3_0" arrivalPos="286.40" arrivalSpeed="14.26" duration="76.00" routeLength="894.86" waitingTime="3.00" waitingCount="1" stopTime="0.00" timeLoss="16.81" rerouteNo="0" devices="tripinfo_75" vType="DEFAULT_VEHTYPE" speedFactor="1.11" vaporized=""/>
    <tripinfo id="53" depart="205.00" departLane="bottom1B0_0" departPos="5.10" departSpeed="0.00" departDelay="0.00" arrival="390.00" arrivalLane="B0bottom1_0" arrivalPos="286.40" arrivalSpeed="13.33" duration="185.00" routeLength="1748.75" waitingTime="20.00" waitingCount="3" stopTime="0.00" timeLoss="52.12" rerouteNo="0" devices="tripinfo_53" vType="DEFAULT_VEHTYPE" speedFactor="0.97" vaporized=""/>
    <tripinfo id="76" depart="317.00" departLane="top1B3_0" departPos="5.10" departSpeed="0.00" departDelay="0.00" arrival="397.00" arrivalLane="A3top0_0" arrivalPos="286.40" arrivalSpeed="13.47" duration="80.00" routeLength="858.56" waitingTime="2.00" waitingCount="2" stopTime="0.00" timeLoss="18.57" rerouteNo="0" devices="tripinfo_76" vType="DEFAULT_VEHTYPE" speedFactor="1.03" vaporized=""/>
    <tripinfo id="71" depart="305.00" departLane="left1A1_0" departPos="5.10" departSpeed="0.00" departDelay="0.00" arrival="399.00" arrivalLane="A0bottom0_0" arrivalPos="286.40" arrivalSpeed="13.65" duration="94.00" routeLength="879.60" waitingTime="13.00" waitingCount="1" stopTime="0.00" timeLoss="30.91" rerouteNo="0" devices="tripinfo_71" vType="DEFAULT_VEHTYPE" speedFactor="1.03" vaporized=""/>
    <tripinfo id="73" depart="308.00" departLane="left1A1_0" departPos="5.10" departSpeed="0.00" departDelay="0.00" arrival="403.00" arrivalLane="A2left2_0" arrivalPos="286.40" arrivalSpeed="11.61" duration="95.00" routeLength="894.86" waitingTime="5.00" waitingCount="1" stopTime="0.00" timeLoss="18.47" rerouteNo="0" devices="tripinfo_73" vType="DEFAULT_VEHTYPE" speedFactor="0.86" vaporized=""/>
    <tripinfo id="65" depart="276.00" departLane="right0D0_0" departPos="5.10" departSpeed="0.00" departDelay="0.00" arrival="409.00" arrivalLane="A0left0_0" arrivalPos="286.40" arrivalSpeed="14.14" duration="133.00" routeLength="1495.58" waitingTime="13.00" waitingCount="2" stopTime="0.00" timeLoss="31.30" rerouteNo="0" devices="tripinfo_65" vType="DEFAULT_VEHTYPE" speedFactor="1.07" vaporized=""/>
    <tripinfo id="69" depart="294.00" departLane="right1D1_0" departPos="5.10" departSpeed="0.00" departDelay="0.00" arrival="420.00" arrivalLane="D3top3_0" arrivalPos="286.40" arrivalSpeed="12.05" duration="126.00" routeLength="1179.77" waitingTime="13.00" waitingCount="2" stopTime="0.00" timeLoss="35.01" rerouteNo="0" devices="tripinfo_69" vType="DEFAULT_VEHTYPE" speedFactor="0.94" vaporized=""/>
    <tripinfo id="40" depart="161.00" departLane="left0A0_0" departPos="5.10" departSpeed="0.00" departDelay="0.00" arrival="423.00" arrivalLane="D3top3_0" arrivalPos="286.40" arrivalSpeed="12.40" duration="262.00" routeLength="2395.86" waitingTime="35.00" waitingCount="3" stopTime="0.00" timeLoss="72.55" rerouteNo="0" devices="tripinfo_40" vType="DEFAULT_VEHTYPE" speedFactor="0.91" vaporized=""/>
    <tripinfo id="51" depart="202.00" departLane="right2D2_0" departPos="5.10" departSpeed="0.00" departDelay="0.00" arrival="437.00" arrivalLane="A0bottom0_0" arrivalPos="286.40" arrivalSpeed="15.51" duration="235.00" routeLength="2095.69" waitingTime="51.00" waitingCount="6" stopTime="0.00" timeLoss="99.06" rerouteNo="0" devices="tripinfo_51" vType="DEFAULT_VEHTYPE" speedFactor="1.12" vaporized=""/>
    <tripinfo id="80" depart="333.00" departLane="right0D0_0" departPos="5.10" departSpeed="0.00" departDelay="0.00" arrival="447.00" arrivalLane="A0bottom0_0" arrivalPos="286.40" arrivalSpeed="14.36" duration="114.00" routeLength="1498.06" waitingTime="0.00" waitingCount="0" stopTime="0.00" timeLoss="11.47" rerouteNo="0" devices="tripinfo_80" vType="DEFAULT_VEHTYPE" speedFactor="1.06" vaporized=""/>
    <tripinfo id="59" depart="259.00" departLane="right2D2_0" departPos="5.10" departSpeed="0.00" departDelay="0.00" arrival="448.00" arrivalLane="A1left1_0" arrivalPos="286.40" arrivalSpeed="13.28" duration="189.00" routeLength="1782.59" waitingTime="34.00" waitingCount="4" stopTime="0.00" timeLoss="64.98" rerouteNo="0" devices="tripinfo_59" vType="DEFAULT_VEHTYPE" speedFactor="1.05" vaporized=""/>
    <tripinfo id="61" depart="268.00" departLane="top0A3_0" departPos="5.10" departSpeed="0.00" departDelay="1.00" arrival="449.00" arrivalLane="B0bottom1_0" arrivalPos="286.40" arrivalSpeed="12.71" duration="181.00" routeLength="1782.59" waitingTime="23.00" waitingCount="3" stopTime="0.00" timeLoss="50.33" rerouteNo="0" devices="tripinfo_61" vType="DEFAULT_VEHTYPE" speedFactor="0.99" vaporized=""/>