<?xml version="1.0" encoding="UTF-8"?>

<!-- generated on 12/10/21 12:03:58 by Eclipse SUMO sumo Version 1.7.0
<configuration xmlns:xsi="http://www.w3.org/2001/XMLSchema-instance" xsi:noNamespaceSchemaLocation="http://sumo.dlr.de/xsd/sumoConfiguration.xsd">

    <input>
        <net-file value="C:\Users\longs\Desktop\RESCO-main\environments\grid4x4\grid4x4.net.xml"/>
        <route-files value="C:\Users\longs\Desktop\RESCO-main\environments\grid4x4\grid4x4_63.rou.xml"/>
    </input>

    <output>
        <tripinfo-output value="C:\Users\longs\Desktop\RESCO-main\logs\IDQN-tr1-grid4x4-0-drqlong-delaydiff_pressure\tripinfo_63.xml"/>
        <tripinfo-output.write-unfinished value="true"/>
    </output>

    <processing>
        <time-to-teleport value="-1"/>
    </processing>

    <report>
        <no-warnings value="true"/>
        <no-step-log value="true"/>
    </report>

    <traci_server>
        <remote-port value="54861"/>
    </traci_server>

    <random_number>
        <random value="true"/>
    </random_number>

</configuration>
-->

<tripinfos xmlns:xsi="http://www.w3.org/2001/XMLSchema-instance" xsi:noNamespaceSchemaLocation="http://sumo.dlr.de/xsd/tripinfo_file.xsd">
    <tripinfo id="0" depart="1.00" departLane="top2C3_0" departPos="5.10" departSpeed="0.00" departDelay="0.00" arrival="108.00" arrivalLane="A3left3_0" arrivalPos="286.40" arrivalSpeed="14.21" duration="107.00" routeLength="1179.77" waitingTime="8.00" waitingCount="2" stopTime="0.00" timeLoss="25.93" rerouteNo="0" devices="tripinfo_0" vType="DEFAULT_VEHTYPE" speedFactor="1.06" vaporized=""/>
    <tripinfo id="12" depart="65.00" departLane="top0A3_0" departPos="5.10" departSpeed="0.00" departDelay="0.00" arrival="128.00" arrivalLane="A3left3_0" arrivalPos="286.40" arrivalSpeed="10.58" duration="63.00" routeLength="576.73" waitingTime="1.00" waitingCount="1" stopTime="0.00" timeLoss="11.32" rerouteNo="0" devices="tripinfo_12" vType="DEFAULT_VEHTYPE" speedFactor="0.82" vaporized=""/>
    <tripinfo id="5" depart="29.00" departLane="top1B3_0" departPos="5.10" departSpeed="0.00" departDelay="0.00" arrival="141.00" arrivalLane="C3top2_0" arrivalPos="286.40" arrivalSpeed="12.25" duration="112.00" routeLength="894.86" waitingTime="25.00" waitingCount="2" stopTime="0.00" timeLoss="40.61" rerouteNo="0" devices="tripinfo_5" vType="DEFAULT_VEHTYPE" speedFactor="0.92" vaporized=""/>
    <tripinfo id="18" depart="97.00" departLane="right3D3_0" departPos="5.10" departSpeed="0.00" departDelay="0.00" arrival="141.00" arrivalLane="D3top3_0" arrivalPos="286.40" arrivalSpeed="15.12" duration="44.00" routeLength="576.73" waitingTime="0.00" waitingCount="0" stopTime="0.00" timeLoss="6.78" rerouteNo="0" devices="tripinfo_18" vType="DEFAULT_VEHTYPE" speedFactor="1.16" vaporized=""/>
    <tripinfo id="3" depart="16.00" departLane="bottom1B0_0" departPos="5.10" departSpeed="0.00" departDelay="0.00" arrival="156.00" arrivalLane="D1right1_0" arrivalPos="286.40" arrivalSpeed="15.98" duration="140.00" routeLength="1479.94" waitingTime="22.00" waitingCount="3" stopTime="0.00" timeLoss="49.36" rerouteNo="0" devices="tripinfo_3" vType="DEFAULT_VEHTYPE" speedFactor="1.19" vaporized=""/>
    <tripinfo id="15" depart="78.00" departLane="bottom1B0_0" departPos="5.10" departSpeed="0.00" departDelay="0.00" arrival="157.00" arrivalLane="C0bottom2_0" arrivalPos="286.40" arrivalSpeed="12.15" duration="79.00" routeLength="858.56" waitingTime="1.00" waitingCount="1" stopTime="0.00" timeLoss="12.58" rerouteNo="0" devices="tripinfo_15" vType="DEFAULT_VEHTYPE" speedFactor="0.95" vaporized=""/>
    <tripinfo id="2" depart="15.00" departLane="top3D3_0" departPos="5.10" departSpeed="0.00" departDelay="0.00" arrival="159.00" arrivalLane="D0right0_0" arrivalPos="286.40" arrivalSpeed="14.67" duration="144.00" routeLength="1498.06" waitingTime="25.00" waitingCount="2" stopTime="0.00" timeLoss="46.37" rerouteNo="0" devices="tripinfo_2" vType="DEFAULT_VEHTYPE" speedFactor="1.12" vaporized=""/>
    <tripinfo id="1" depart="8.00" departLane="right3D3_0" departPos="5.10" departSpeed="0.00" departDelay="0.00" arrival="170.00" arrivalLane="A3left3_0" arrivalPos="286.40" arrivalSpeed="12.28" duration="162.00" routeLength="1495.58" waitingTime="23.00" waitingCount="2" stopTime="0.00" timeLoss="49.66" rerouteNo="0" devices="tripinfo_1" vType="DEFAULT_VEHTYPE" speedFactor="0.96" vaporized=""/>
    <tripinfo id="4" depart="27.00" departLane="bottom0A0_0" departPos="5.10" departSpeed="0.00" departDelay="0.00" arrival="183.00" arrivalLane="D0bottom3_0" arrivalPos="286.40" arrivalSpeed="13.47" duration="156.00" routeLength="1461.60" waitingTime="26.00" waitingCount="2" stopTime="0.00" timeLoss="50.70" rerouteNo="0" devices="tripinfo_4" vType="DEFAULT_VEHTYPE" speedFactor="1.02" vaporized=""/>
    <tripinfo id="17" depart="95.00" departLane="left0A0_0" departPos="5.10" departSpeed="0.00" departDelay="0.00" arrival="190.00" arrivalLane="A1left1_0" arrivalPos="286.40" arrivalSpeed="12.44" duration="95.00" routeLength="894.86" waitingTime="11.00" waitingCount="1" stopTime="0.00" timeLoss="27.82" rerouteNo="0" devices="tripinfo_17" vType="DEFAULT_VEHTYPE" speedFactor="0.98" vaporized=""/>
    <tripinfo id="6" depart="30.00" departLane="left0A0_0" departPos="5.10" departSpeed="0.00" departDelay="0.00" arrival="191.00" arrivalLane="D0bottom3_0" arrivalPos="286.40" arrivalSpeed="13.33" duration="161.00" routeLength="1477.24" waitingTime="17.00" waitingCount="4" stopTime="0.00" timeLoss="51.35" rerouteNo="0" devices="tripinfo_6" vType="DEFAULT_VEHTYPE" speedFactor="0.98" vaporized=""/>
    <tripinfo id="11" depart="56.00" departLane="right1D1_0" departPos="5.10" departSpeed="0.00" departDelay="0.00" arrival="194.00" arrivalLane="C0bottom2_0" arrivalPos="286.40" arrivalSpeed="12.95" duration="138.00" routeLength="1195.18" waitingTime="29.00" waitingCount="2" stopTime="0.00" timeLoss="47.57" rerouteNo="0" devices="tripinfo_11" vType="DEFAULT_VEHTYPE" speedFactor="0.96" vaporized=""/>
    <tripinfo id="27" depart="138.00" departLane="bottom0A0_0" departPos="5.10" departSpeed="0.00" departDelay="0.00" arrival="201.00" arrivalLane="A0left0_0" arrivalPos="286.40" arrivalSpeed="10.42" duration="63.00" routeLength="597.55" waitingTime="0.00" waitingCount="0" stopTime="0.00" timeLoss="6.15" rerouteNo="0" devices="tripinfo_27" vType="DEFAULT_VEHTYPE" speedFactor="0.77" vaporized=""/>
    <tripinfo id="20" depart="107.00" departLane="top2C3_0" departPos="5.10" departSpeed="0.00" departDelay="0.00" arrival="212.00" arrivalLane="D3top3_0" arrivalPos="286.40" arrivalSpeed="11.41" duration="105.00" routeLength="894.86" waitingTime="15.00" waitingCount="2" stopTime="0.00" timeLoss="31.71" rerouteNo="0" devices="tripinfo_20" vType="DEFAULT_VEHTYPE" speedFactor="0.89" vaporized=""/>
    <tripinfo id="19" depart="104.00" departLane="left1A1_0" departPos="5.10" departSpeed="0.00" departDelay="0.00" arrival="218.00" arrivalLane="A3top0_0" arrivalPos="286.40" arrivalSpeed="14.20" duration="114.00" routeLength="1195.18" waitingTime="12.00" waitingCount="2" stopTime="0.00" timeLoss="30.71" rerouteNo="0" devices="tripinfo_19" vType="DEFAULT_VEHTYPE" speedFactor="1.04" vaporized=""/>
    <tripinfo id="22" depart="115.00" departLane="top3D3_0" departPos="5.10" departSpeed="0.00" departDelay="0.00" arrival="220.00" arrivalLane="B3top1_0" arrivalPos="286.40" arrivalSpeed="13.94" duration="105.00" routeLength="1161.43" waitingTime="7.00" waitingCount="2" stopTime="0.00" timeLoss="25.77" rerouteNo="0" devices="tripinfo_22" vType="DEFAULT_VEHTYPE" speedFactor="1.07" vaporized=""/>
    <tripinfo id="16" depart="82.00" departLane="right0D0_0" departPos="5.10" departSpeed="0.00" departDelay="0.00" arrival="228.00" arrivalLane="A0left0_0" arrivalPos="286.40" arrivalSpeed="13.53" duration="146.00" routeLength="1495.58" waitingTime="16.00" waitingCount="3" stopTime="0.00" timeLoss="43.47" rerouteNo="0" devices="tripinfo_16" vType="DEFAULT_VEHTYPE" speedFactor="1.05" vaporized=""/>
    <tripinfo id="7" depart="33.00" departLane="left3A3_0" departPos="5.10" departSpeed="0.00" departDelay="0.00" arrival="237.00" arrivalLane="D0bottom3_0" arrivalPos="286.40" arrivalSpeed="14.53" duration="204.00" routeLength="2380.45" waitingTime="25.00" waitingCount="2" stopTime="0.00" timeLoss="49.25" rerouteNo="0" devices="tripinfo_7" vType="DEFAULT_VEHTYPE" speedFactor="1.11" vaporized=""/>
    <tripinfo id="36" depart="184.00" departLane="top0A3_0" departPos="5.10" departSpeed="0.00" departDelay="0.00" arrival="238.00" arrivalLane="A3left3_0" arrivalPos="286.40" arrivalSpeed="13.25" duration="54.00" routeLength="576.73" waitingTime="1.00" waitingCount="1" stopTime="0.00" timeLoss="11.76" rerouteNo="0" devices="tripinfo_36" vType="DEFAULT_VEHTYPE" speedFactor="1.00" vaporized=""/>
    <tripinfo id="8" depart="33.00" departLane="top3D3_0" departPos="5.10" departSpeed="0.00" departDelay="0.00" arrival="240.00" arrivalLane="B0bottom1_0" arrivalPos="286.40" arrivalSpeed="12.82" duration="207.00" routeLength="2082.76" waitingTime="19.00" waitingCount="3" stopTime="0.00" timeLoss="53.64" rerouteNo="0" devices="tripinfo_8" vType="DEFAULT_VEHTYPE" speedFactor="0.99" vaporized=""/>
    <tripinfo id="10" depart="56.00" departLane="top2C3_0" departPos="5.10" departSpeed="0.00" departDelay="0.00" arrival="247.00" arrivalLane="B0bottom1_0" arrivalPos="286.40" arrivalSpeed="15.06" duration="191.00" routeLength="1782.72" waitingTime="41.00" waitingCount="4" stopTime="0.00" timeLoss="78.21" rerouteNo="0" devices="tripinfo_10" vType="DEFAULT_VEHTYPE" speedFactor="1.15" vaporized=""/>
    <tripinfo id="25" depart="136.00" departLane="top2C3_0" departPos="5.10" departSpeed="0.00" departDelay="0.00" arrival="249.00" arrivalLane="D2right2_0" arrivalPos="286.40" arrivalSpeed="13.90" duration="113.00" routeLength="1195.18" waitingTime="14.00" waitingCount="1" stopTime="0.00" timeLoss="31.68" rerouteNo="0" devices="tripinfo_25" vType="DEFAULT_VEHTYPE" speedFactor="1.07" vaporized=""/>
    <tripinfo id="23" depart="122.00" departLane="right3D3_0" departPos="5.10" departSpeed="0.00" departDelay="0.00" arrival="262.00" arrivalLane="D0right0_0" arrivalPos="286.40" arrivalSpeed="12.29" duration="140.00" routeLength="1497.83" waitingTime="1.00" waitingCount="1" stopTime="0.00" timeLoss="19.45" rerouteNo="0" devices="tripinfo_23" vType="DEFAULT_VEHTYPE" speedFactor="0.91" vaporized=""/>
    <tripinfo id="31" depart="158.00" departLane="top1B3_0" departPos="5.10" departSpeed="0.00" departDelay="0.00" arrival="265.00" arrivalLane="C3top2_0" arrivalPos="286.40" arrivalSpeed="10.18" duration="107.00" routeLength="894.86" waitingTime="13.00" waitingCount="1" stopTime="0.00" timeLoss="25.30" rerouteNo="0" devices="tripinfo_31" vType="DEFAULT_VEHTYPE" speedFactor="0.81" vaporized=""/>
    <tripinfo id="26" depart="138.00" departLane="bottom2C0_0" departPos="5.10" departSpeed="0.00" departDelay="0.00" arrival="269.00" arrivalLane="A0bottom0_0" arrivalPos="286.40" arrivalSpeed="13.35" duration="131.00" routeLength="1197.66" waitingTime="20.00" waitingCount="3" stopTime="0.00" timeLoss="45.19" rerouteNo="0" devices="tripinfo_26" vType="DEFAULT_VEHTYPE" speedFactor="1.02" vaporized=""/>
    <tripinfo id="28" depart="145.00" departLane="bottom2C0_0" departPos="5.10" departSpeed="0.00" departDelay="0.00" arrival="273.00" arrivalLane="A0left0_1" arrivalPos="286.40" arrivalSpeed="12.99" duration="128.00" routeLength="1195.18" waitingTime="13.00" waitingCount="2" stopTime="0.00" timeLoss="36.87" rerouteNo="0" devices="tripinfo_28" vType="DEFAULT_VEHTYPE" speedFactor="0.96" vaporized=""/>
    <tripinfo id="32" depart="166.00" departLane="bottom1B0_0" departPos="5.10" departSpeed="0.00" departDelay="0.00" arrival="274.00" arrivalLane="A0left0_0" arrivalPos="286.40" arrivalSpeed="10.56" duration="108.00" routeLength="895.01" waitingTime="12.00" waitingCount="2" stopTime="0.00" timeLoss="28.72" rerouteNo="0" devices="tripinfo_32" vType="DEFAULT_VEHTYPE" speedFactor="0.82" vaporized=""/>
    <tripinfo id="38" depart="187.00" departLane="top3D3_0" departPos="5.10" departSpeed="0.00" departDelay="0.00" arrival="283.00" arrivalLane="A3left3_1" arrivalPos="286.40" arrivalSpeed="18.55" duration="96.00" routeLength="1479.94" waitingTime="1.00" waitingCount="1" stopTime="0.00" timeLoss="19.78" rerouteNo="0" devices="tripinfo_38" vType="DEFAULT_VEHTYPE" speedFactor="1.42" vaporized=""/>
    <tripinfo id="30" depart="149.00" departLane="left0A0_0" departPos="5.10" departSpeed="0.00" departDelay="0.00" arrival="284.00" arrivalLane="C0bottom2_0" arrivalPos="286.40" arrivalSpeed="15.35" duration="135.00" routeLength="1177.07" waitingTime="33.00" waitingCount="3" stopTime="0.00" timeLoss="58.36" rerouteNo="0" devices="tripinfo_30" vType="DEFAULT_VEHTYPE" speedFactor="1.12" vaporized=""/>
    <tripinfo id="9" depart="55.00" departLane="bottom1B0_0" departPos="5.10" departSpeed="0.00" departDelay="0.00" arrival="287.00" arrivalLane="D3top3_0" arrivalPos="286.40" arrivalSpeed="15.10" duration="232.00" routeLength="2082.76" waitingTime="58.00" waitingCount="5" stopTime="0.00" timeLoss="97.49" rerouteNo="0" devices="tripinfo_9" vType="DEFAULT_VEHTYPE" speedFactor="1.12" vaporized=""/>
    <tripinfo id="13" depart="70.00" departLane="bottom2C0_0" departPos="5.10" departSpeed="0.00" departDelay="0.00" arrival="287.00" arrivalLane="A3left3_0" arrivalPos="286.40" arrivalSpeed="13.07" duration="217.00" routeLength="2095.69" waitingTime="35.00" waitingCount="3" stopTime="0.00" timeLoss="59.00" rerouteNo="0" devices="tripinfo_13" vType="DEFAULT_VEHTYPE" speedFactor="0.96" vaporized=""/>
    <tripinfo id="53" depart="242.00" departLane="bottom3D0_0" departPos="5.10" departSpeed="0.00" departDelay="0.00" arrival="303.00" arrivalLane="D0right0_0" arrivalPos="286.40" arrivalSpeed="11.64" duration="61.00" routeLength="576.73" waitingTime="1.00" waitingCount="1" stopTime="0.00" timeLoss="11.97" rerouteNo="0" devices="tripinfo_53" vType="DEFAULT_VEHTYPE" speedFactor="0.86" vaporized=""/>
    <tripinfo id="33" depart="173.00" departLane="right3D3_0" departPos="5.10" departSpeed="0.00" departDelay="0.00" arrival="304.00" arrivalLane="B3top1_0" arrivalPos="286.40" arrivalSpeed="14.47" duration="131.00" routeLength="1177.07" waitingTime="28.00" waitingCount="3" stopTime="0.00" timeLoss="53.33" rerouteNo="0" devices="tripinfo_33" vType="DEFAULT_VEHTYPE" speedFactor="1.11" vaporized=""/>
    <tripinfo id="40" depart="198.00" departLane="left0A0_0" departPos="5.10" departSpeed="0.00" departDelay="0.00" arrival="307.00" arrivalLane="A2left2_0" arrivalPos="286.40" arrivalSpeed="14.65" duration="109.00" routeLength="1197.66" waitingTime="13.00" waitingCount="2" stopTime="0.00" timeLoss="31.56" rerouteNo="0" devices="tripinfo_40" vType="DEFAULT_VEHTYPE" speedFactor="1.14" vaporized=""/>
    <tripinfo id="44" depart="213.00" departLane="right2D2_0" departPos="5.10" departSpeed="0.00" departDelay="0.00" arrival="308.00" arrivalLane="D1right1_0" arrivalPos="286.40" arrivalSpeed="14.23" duration="95.00" routeLength="894.86" waitingTime="17.00" waitingCount="2" stopTime="0.00" timeLoss="33.48" rerouteNo="0" devices="tripinfo_44" vType="DEFAULT_VEHTYPE" speedFactor="1.07" vaporized=""/>
    <tripinfo id="35" depart="179.00" departLane="left1A1_0" departPos="5.10" departSpeed="0.00" departDelay="0.00" arrival="311.00" arrivalLane="A3left3_0" arrivalPos="286.40" arrivalSpeed="12.55" duration="132.00" routeLength="1197.66" waitingTime="22.00" waitingCount="2" stopTime="0.00" timeLoss="38.56" rerouteNo="0" devices="tripinfo_35" vType="DEFAULT_VEHTYPE" speedFactor="0.94" vaporized=""/>
    <tripinfo id="14" depart="76.00" departLane="left3A3_0" departPos="5.10" departSpeed="0.00" departDelay="0.00" arrival="313.00" arrivalLane="D1right1_0" arrivalPos="286.40" arrivalSpeed="12.93" duration="237.00" routeLength="2082.76" waitingTime="45.00" waitingCount="4" stopTime="0.00" timeLoss="83.63" rerouteNo="0" devices="tripinfo_14" vType="DEFAULT_VEHTYPE" speedFactor="0.99" vaporized=""/>
    <tripinfo id="37" depart="185.00" departLane="left1A1_0" departPos="5.10" departSpeed="0.00" departDelay="0.00" arrival="315.00" arrivalLane="A3left3_0" arrivalPos="286.40" arrivalSpeed="11.07" duration="130.00" routeLength="1197.66" waitingTime="12.00" waitingCount="1" stopTime="0.00" timeLoss="30.52" rerouteNo="0" devices="tripinfo_37" vType="DEFAULT_VEHTYPE" speedFactor="0.88" vaporized=""/>
    <tripinfo id="46" depart="220.00" departLane="bottom0A0_0" departPos="5.10" departSpeed="0.00" departDelay="0.00" arrival="320.00" arrivalLane="C0bottom2_0" arrivalPos="286.40" arrivalSpeed="13.68" duration="100.00" routeLength="1161.43" waitingTime="1.00" waitingCount="1" stopTime="0.00" timeLoss="19.74" rerouteNo="0" devices="tripinfo_46" vType="DEFAULT_VEHTYPE" speedFactor="1.07" vaporized=""/>
    <tripinfo id="29" depart="145.00" departLane="bottom1B0_0" departPos="5.10" departSpeed="0.00" departDelay="0.00" arrival="331.00" arrivalLane="B3top1_0" arrivalPos="286.40" arrivalSpeed="11.66" duration="186.00" routeLength="1495.58" waitingTime="39.00" waitingCount="3" stopTime="0.00" timeLoss="69.13" rerouteNo="0" devices="tripinfo_29" vType="DEFAULT_VEHTYPE" speedFactor="0.93" vaporized=""/>
    <tripinfo id="41" depart="201.00" departLane="left3A3_0" departPos="5.10" departSpeed="0.00" departDelay="0.00" arrival="338.00" arrivalLane="D3top3_0" arrivalPos="286.40" arrivalSpeed="14.63" duration="137.00" routeLength="1498.06" waitingTime="14.00" waitingCount="2" stopTime="0.00" timeLoss="33.56" rerouteNo="0" devices="tripinfo_41" vType="DEFAULT_VEHTYPE" speedFactor="1.05" vaporized=""/>
    <tripinfo id="50" depart="234.00" departLane="top1B3_0" departPos="5.10" departSpeed="0.00" departDelay="0.00" arrival="338.00" arrivalLane="D3top3_1" arrivalPos="286.40" arrivalSpeed="16.21" duration="104.00" routeLength="1197.66" waitingTime="9.00" waitingCount="2" stopTime="0.00" timeLoss="30.14" rerouteNo="0" devices="tripinfo_50" vType="DEFAULT_VEHTYPE" speedFactor="1.19" vaporized=""/>
    <tripinfo id="61" depart="254.00" departLane="top1B3_0" departPos="5.10" departSpeed="0.00" departDelay="0.00" arrival="339.00" arrivalLane="A3left3_0" arrivalPos="286.40" arrivalSpeed="13.23" duration="85.00" routeLength="879.60" waitingTime="5.00" waitingCount="2" stopTime="0.00" timeLoss="22.53" rerouteNo="0" devices="tripinfo_61" vType="DEFAULT_VEHTYPE" speedFactor="1.03" vaporized=""/>
    <tripinfo id="21" depart="108.00" departLane="left1A1_0" departPos="5.10" departSpeed="0.00" departDelay="0.00" arrival="341.00" arrivalLane="D3right3_0" arrivalPos="286.40" arrivalSpeed="11.76" duration="233.00" routeLength="2080.05" waitingTime="33.00" waitingCount="4" stopTime="0.00" timeLoss="67.85" rerouteNo="0" devices="tripinfo_21" vType="DEFAULT_VEHTYPE" speedFactor="0.91" vaporized=""/>
    <tripinfo id="64" depart="267.00" departLane="right0D0_0" departPos="5.10" departSpeed="0.00" departDelay="0.00" arrival="346.00" arrivalLane="D1right1_0" arrivalPos="286.40" arrivalSpeed="12.35" duration="79.00" routeLength="858.56" waitingTime="1.00" waitingCount="1" stopTime="0.00" timeLoss="14.12" rerouteNo="0" devices="tripinfo_64" vType="DEFAULT_VEHTYPE" speedFactor="0.98" vaporized=""/>
    <tripinfo id="34" depart="178.00" departLane="right1D1_0" departPos="5.10" departSpeed="0.00" departDelay="0.00" arrival="348.00" arrivalLane="C0bottom2_0" arrivalPos="286.40" arrivalSpeed="14.58" duration="170.00" routeLength="1195.18" waitingTime="65.00" waitingCount="3" stopTime="0.00" timeLoss="87.66" rerouteNo="0" devices="tripinfo_34" vType="DEFAULT_VEHTYPE" speedFactor="1.06" vaporized=""/>
    <tripinfo id="51" depart="236.00" departLane="right2D2_0" departPos="5.10" departSpeed="0.00" departDelay="0.00" arrival="352.00" arrivalLane="D1right1_0" arrivalPos="286.40" arrivalSpeed="12.44" duration="116.00" routeLength="894.86" waitingTime="26.00" waitingCount="2" stopTime="0.00" timeLoss="43.84" rerouteNo="0" devices="tripinfo_51" vType="DEFAULT_VEHTYPE" speedFactor="0.91" vaporized=""/>
    <tripinfo id="54" depart="243.00" departLane="left3A3_0" departPos="5.10" departSpeed="0.00" departDelay="0.00" arrival="362.00" arrivalLane="B3top1_0" arrivalPos="286.40" arrivalSpeed="12.59" duration="119.00" routeLength="897.72" waitingTime="30.00" waitingCount="2" stopTime="0.00" timeLoss="48.18" rerouteNo="0" devices="tripinfo_54" vType="DEFAULT_VEHTYPE" speedFactor="0.93" vaporized=""/>
    <tripinfo id="39" depart="192.00" departLane="top1B3_0" departPos="5.10" departSpeed="0.00" departDelay="0.00" arrival="368.00" arrivalLane="D1right1_0" arrivalPos="286.40" arrivalSpeed="12.49" duration="176.00" routeLength="1795.52" waitingTime="16.00" waitingCount="3" stopTime="0.00" timeLoss="40.54" rerouteNo="0" devices="tripinfo_39" vType="DEFAULT_VEHTYPE" speedFactor="0.96" vaporized=""/>
    <tripinfo id="62" depart="256.00" departLane="right1D1_0" departPos="5.10" departSpeed="0.00" departDelay="0.00" arrival="368.00" arrivalLane="D0bottom3_0" arrivalPos="286.40" arrivalSpeed="14.16" duration="112.00" routeLength="895.01" waitingTime="33.00" waitingCount="2" stopTime="0.00" timeLoss="52.36" rerouteNo="0" devices="tripinfo_62" vType="DEFAULT_VEHTYPE" speedFactor="1.10" vaporized=""/>
    <tripinfo id="65" depart="268.00" departLane="right1D1_0" departPos="5.10" departSpeed="0.00" departDelay="0.00" arrival="370.00" arrivalLane="D0right0_0" arrivalPos="286.40" arrivalSpeed="13.79" duration="102.00" routeLength="894.86" waitingTime="19.00" waitingCount="1" stopTime="0.00" timeLoss="36.24" rerouteNo="0" devices="tripinfo_65" vType="DEFAULT_VEHTYPE" speedFactor="1.00" vaporized=""/>
    <tripinfo id="43" depart="211.00" departLane="bottom2C0_0" departPos="5.10" departSpeed="0.00" departDelay="0.00" arrival="379.00" arrivalLane="C0bottom2_0" arrivalPos="286.40" arrivalSpeed="14.10" duration="168.00" routeLength="1748.75" waitingTime="15.00" waitingCount="4" stopTime="0.00" timeLoss="42.61" rerouteNo="0" devices="tripinfo_43" vType="DEFAULT_VEHTYPE" speedFactor="1.03" vaporized=""/>
    <tripinfo id="71" depart="289.00" departLane="bottom0A0_0" departPos="5.10" departSpeed="0.00" departDelay="0.00" arrival="385.00" arrivalLane="C0bottom2_0" arrivalPos="286.40" arrivalSpeed="13.48" duration="96.00" routeLength="1161.43" waitingTime="1.00" waitingCount="1" stopTime="0.00" timeLoss="14.61" rerouteNo="0" devices="tripinfo_71" vType="DEFAULT_VEHTYPE" speedFactor="1.04" vaporized=""/>
    <tripinfo id="55" depart="244.00" departLane="right0D0_0" departPos="5.10" departSpeed="0.00" departDelay="0.00" arrival="386.00" arrivalLane="A1left1_0" arrivalPos="286.40" arrivalSpeed="15.59" duration="142.00" routeLength="1782.72" waitingTime="15.00" waitingCount="1" stopTime="0.00" timeLoss="31.75" rerouteNo="0" devices="tripinfo_55" vType="DEFAULT_VEHTYPE" speedFactor="1.17" vaporized=""/>
    <tripinfo id="45" depart="216.00" departLane="left2A2_0" departPos="5.10" departSpeed="0.00" departDelay="0.00" arrival="388.00" arrivalLane="C3top2_0" arrivalPos="286.40" arrivalSpeed="14.72" duration="172.00" routeLength="1495.35" waitingTime="44.00" waitingCount="3" stopTime="0.00" timeLoss="71.86" rerouteNo="0" devices="tripinfo_45" vType="DEFAULT_VEHTYPE" speedFactor="1.09" vaporized=""/>
    <tripinfo id="77" depart="312.00" departLane="bottom2C0_0" departPos="5.10" departSpeed="0.00" departDelay="0.00" arrival="390.00" arrivalLane="D0bottom3_0" arrivalPos="286.40" arrivalSpeed="14.26" duration="78.00" routeLength="858.56" waitingTime="2.00" waitingCount="2" stopTime="0.00" timeLoss="17.26" rerouteNo="0" devices="tripinfo_77" vType="DEFAULT_VEHTYPE" speedFactor="1.03" vaporized=""/>
    <tripinfo id="42" depart="204.00" departLane="right2D2_0" departPos="5.10" departSpeed="0.00" departDelay="0.00" arrival="392.00" arrivalLane="C0bottom2_0" arrivalPos="286.40" arrivalSpeed="11.47" duration="188.00" routeLength="1495.35" waitingTime="36.00" waitingCount="3" stopTime="0.00" timeLoss="60.91" rerouteNo="0" devices="tripinfo_42" vType="DEFAULT_VEHTYPE" speedFactor="0.85" vaporized=""/>
    <tripinfo id="63" depart="260.00" departLane="right1D1_0" departPos="5.10" departSpeed="0.00" departDelay="0.00" arrival="394.00" arrivalLane="C0bottom2_0" arrivalPos="286.40" arrivalSpeed="12.80" duration="134.00" routeLength="1195.18" waitingTime="24.00" waitingCount="2" stopTime="0.00" timeLoss="41.59" rerouteNo="0" devices="tripinfo_63" vType="DEFAULT_VEHTYPE" speedFactor="0.94" vaporized=""/>
    <tripinfo id="52" depart="242.00" departLane="right3D3_0" departPos="5.10" departSpeed="0.00" departDelay="0.00" arrival="406.00" arrivalLane="D3right3_0" arrivalPos="286.40" arrivalSpeed="15.94" duration="164.00" routeLength="1745.91" waitingTime="17.00" waitingCount="5" stopTime="0.00" timeLoss="55.70" rerouteNo="0" devices="tripinfo_52" vType="DEFAULT_VEHTYPE" speedFactor="1.19" vaporized=""/>
    <tripinfo id="24" depart="127.00" departLane="bottom2C0_0" departPos="5.10" departSpeed="0.00" departDelay="0.00" arrival="419.00" arrivalLane="A3left3_0" arrivalPos="286.40" arrivalSpeed="13.98" duration="292.00" routeLength="2095.69" waitingTime="97.00" waitingCount="6" stopTime="0.00" timeLoss="142.52" rerouteNo="0" devices="tripinfo_24" vType="DEFAULT_VEHTYPE" speedFactor="1.02" vaporized=""/>
    <tripinfo id="76" depart="311.00" departLane="top1B3_0" departPos="5.10" departSpeed="0.00" departDelay="0.00" arrival="420.00" arrivalLane="A3left3_1" arrivalPos="286.40" arrivalSpeed="14.28" duration="109.00" routeLength="879.60" waitingTime="31.00" waitingCount="2" stopTime="0.00" timeLoss="49.66" rerouteNo="0" devices="tripinfo_76" vType="DEFAULT_VEHTYPE" speedFactor="1.09" vaporized=""/>
    <tripinfo id="47" depart="231.00" departLane="right2D2_0" departPos="5.10" departSpeed="0.00" departDelay="0.00" arrival="422.00" arrivalLane="A3left3_0" arrivalPos="286.40" arrivalSpeed="14.46" duration="191.00" routeLength="1782.72" waitingTime="32.00" waitingCount="5" stopTime="0.00" timeLoss="71.52" rerouteNo="0" devices="tripinfo_47" vType="DEFAULT_VEHTYPE" speedFactor="1.09" vaporized=""/>
    <tripinfo id="80" depart="329.00" departLane="right2D2_0" departPos="5.10" departSpeed="0.00" departDelay="0.00" arrival="428.00" arrivalLane="C3top2_0" arrivalPos="286.40" arrivalSpeed="12.33" duration="99.00" routeLength="1179.77" waitingTime="0.00" waitingCount="0" stopTime="0.00" timeLoss="10.07" rerouteNo="0" devices="tripinfo_80" vType="DEFAULT_VEHTYPE" speedFactor="0.97" vaporized=""/>
    <tripinfo id="84" depart="357.00" departLane="right3D3_0" departPos="5.10" departSpeed="0.00" departDelay="0.00" arrival="436.00" arrivalLane="C3top2_0" arrivalPos="286.40" arrivalSpeed="12.93" duration="79.00" routeLength="876.90" waitingTime="1.00" waitingCount="1" stopTime="0.00" timeLoss="14.05" rerouteNo="0" devices="tripinfo_84" vType="DEFAULT_VEHTYPE" speedFactor="0.99" vaporized=""/>
    <tripinfo id="66" depart="269.00" departLane="top1B3_0" departPos="5.10" departSpeed="0.00" departDelay="0.00" arrival="438.00" arrivalLane="A1left1_0" arrivalPos="286.40" arrivalSpeed="14.04" duration="169.00" routeLength="1479.94" waitingTime="38.00" waitingCount="3" stopTime="0.00" timeLoss="65.66" rerouteNo="0" devices="tripinfo_66" vType="DEFAULT_VEHTYPE" speedFactor="1.04" vaporized=""/>
    <tripinfo id="73" depart="296.00" departLane="top3D3_0" departPos="5.10" departSpeed="0.00" departDelay="0.00" arrival="438.00" arrivalLane="A3left3_0" arrivalPos="286.40" arrivalSpeed="13.43" duration="142.00" routeLength="1479.94" waitingTime="13.00" waitingCount="3" stopTime="0.00" timeLoss="39.20" rerouteNo="0" devices="tripinfo_73" vType="DEFAULT_VEHTYPE" speedFactor="1.04" vaporized=""/>
    <tripinfo id="58" depart="253.00" departLane="left0A0_0" departPos="5.10" departSpeed="0.00" departDelay="0.00" arrival="439.00" arrivalLane="B3top1_0" arrivalPos="286.40" arrivalSpeed="13.96" duration="186.00" routeLength="1795.52" waitingTime="26.00" waitingCount="4" stopTime="0.00" timeLoss="63.89" rerouteNo="0" devices="tripinfo_58" vType="DEFAULT_VEHTYPE" speedFactor="1.07" vaporized=""/>
    <tripinfo id="67" depart="272.00" departLane="left1A1_0" departPos="5.10" departSpeed="0.00" departDelay="0.00" arrival="448.00" arrivalLane="D0right0_0" arrivalPos="286.40" arrivalSpeed="14.98" duration="176.00" routeLength="1782.72" waitingTime="26.00" waitingCount="4" stopTime="0.00" timeLoss="57.25" rerouteNo="0" devices="tripinfo_67" vType="DEFAULT_VEHTYPE" speedFactor="1.09" vaporized=""/>
    <tripinfo id="87" depart="364.00" departLane="bottom2C0_0" departPos="5.10" departSpeed="0.00" departDelay="0.00" arrival="449.00" arrivalLane="D0bottom3_0" arrivalPos="286.40" arrivalSpeed="11.80" duration="85.00" routeLength="858.56" waitingTime="1.00" waitingCount="1" stopTime="0.00" timeLoss="16.37" rerouteNo="0" devices="tripinfo_87" vType="DEFAULT_VEHTYPE" speedFactor="0.93" vaporized=""/>
    <tripinfo id="75" depart="303.00" departLane="top0A3_0" departPos="5.10" departSpeed="0.00" departDelay="0.00" arrival="458.00" arrivalLane="A0bottom0_0" arrivalPos="286.40" arrivalSpeed="14.53" duration="155.00" routeLength="1495.58" waitingTime="25.00" waitingCount="3" stopTime="0.00" timeLoss="52.36" rerouteNo="0" devices="tripinfo_75" vType="DEFAULT_VEHTYPE" speedFactor="1.05" vaporized=""/>
    <tripinfo id="56" depart="248.00" departLane="left0A0_0" departPos="5.10" departSpeed="0.00" departDelay="0.00" arrival="460.00" arrivalLane="D2right2_0" arrivalPos="286.40" arrivalSpeed="12.99" duration="212.00" routeLength="2080.05" waitingTime="22.00" waitingCount="5" stopTime="0.00" timeLoss="65.22" rerouteNo="0" devices="tripinfo_56" vType="DEFAULT_VEHTYPE" speedFactor="1.03" vaporized=""/>