<?xml version="1.0" encoding="UTF-8"?>

<!-- generated on 12/10/21 11:12:50 by Eclipse SUMO sumo Version 1.7.0
<configuration xmlns:xsi="http://www.w3.org/2001/XMLSchema-instance" xsi:noNamespaceSchemaLocation="http://sumo.dlr.de/xsd/sumoConfiguration.xsd">

    <input>
        <net-file value="C:\Users\longs\Desktop\RESCO-main\environments\grid4x4\grid4x4.net.xml"/>
        <route-files value="C:\Users\longs\Desktop\RESCO-main\environments\grid4x4\grid4x4_11.rou.xml"/>
    </input>

    <output>
        <tripinfo-output value="C:\Users\longs\Desktop\RESCO-main\logs\IDQN-tr1-grid4x4-0-drqlong-delaydiff_pressure\tripinfo_11.xml"/>
        <tripinfo-output.write-unfinished value="true"/>
    </output>

    <processing>
        <time-to-teleport value="-1"/>
    </processing>

    <report>
        <no-warnings value="true"/>
        <no-step-log value="true"/>
    </report>

    <traci_server>
        <remote-port value="53265"/>
    </traci_server>

    <random_number>
        <random value="true"/>
    </random_number>

</configuration>
-->

<tripinfos xmlns:xsi="http://www.w3.org/2001/XMLSchema-instance" xsi:noNamespaceSchemaLocation="http://sumo.dlr.de/xsd/tripinfo_file.xsd">
    <tripinfo id="5" depart="43.00" departLane="left0A0_0" departPos="5.10" departSpeed="0.00" departDelay="0.00" arrival="143.00" arrivalLane="B0bottom1_0" arrivalPos="286.40" arrivalSpeed="11.90" duration="100.00" routeLength="876.90" waitingTime="10.00" waitingCount="2" stopTime="0.00" timeLoss="26.46" rerouteNo="0" devices="tripinfo_5" vType="DEFAULT_VEHTYPE" speedFactor="0.87" vaporized=""/>
    <tripinfo id="6" depart="49.00" departLane="bottom0A0_0" departPos="5.10" departSpeed="0.00" departDelay="0.00" arrival="151.00" arrivalLane="A1left1_0" arrivalPos="286.40" arrivalSpeed="14.70" duration="102.00" routeLength="897.72" waitingTime="27.00" waitingCount="1" stopTime="0.00" timeLoss="40.06" rerouteNo="0" devices="tripinfo_6" vType="DEFAULT_VEHTYPE" speedFactor="1.07" vaporized=""/>
    <tripinfo id="8" depart="58.00" departLane="left1A1_0" departPos="5.10" departSpeed="0.00" departDelay="0.00" arrival="160.00" arrivalLane="A2left2_0" arrivalPos="286.40" arrivalSpeed="13.38" duration="102.00" routeLength="894.86" waitingTime="21.00" waitingCount="1" stopTime="0.00" timeLoss="35.76" rerouteNo="0" devices="tripinfo_8" vType="DEFAULT_VEHTYPE" speedFactor="0.99" vaporized=""/>
    <tripinfo id="9" depart="66.00" departLane="left2A2_0" departPos="5.10" departSpeed="0.00" departDelay="0.00" arrival="180.00" arrivalLane="A3left3_0" arrivalPos="286.40" arrivalSpeed="12.76" duration="114.00" routeLength="894.86" waitingTime="31.00" waitingCount="2" stopTime="0.00" timeLoss="47.61" rerouteNo="0" devices="tripinfo_9" vType="DEFAULT_VEHTYPE" speedFactor="0.99" vaporized=""/>
    <tripinfo id="17" depart="118.00" departLane="left2A2_0" departPos="5.10" departSpeed="0.00" departDelay="0.00" arrival="187.00" arrivalLane="A1left1_0" arrivalPos="286.40" arrivalSpeed="14.32" duration="69.00" routeLength="858.56" waitingTime="0.00" waitingCount="0" stopTime="0.00" timeLoss="12.05" rerouteNo="0" devices="tripinfo_17" vType="DEFAULT_VEHTYPE" speedFactor="1.12" vaporized=""/>
    <tripinfo id="14" depart="86.00" departLane="top3D3_0" departPos="5.10" departSpeed="0.00" departDelay="0.00" arrival="195.00" arrivalLane="B3top1_0" arrivalPos="286.40" arrivalSpeed="14.93" duration="109.00" routeLength="1161.43" waitingTime="5.00" waitingCount="3" stopTime="0.00" timeLoss="32.14" rerouteNo="0" devices="tripinfo_14" vType="DEFAULT_VEHTYPE" speedFactor="1.11" vaporized=""/>
    <tripinfo id="1" depart="22.00" departLane="left3A3_0" departPos="5.10" departSpeed="0.00" departDelay="0.00" arrival="212.00" arrivalLane="D3right3_0" arrivalPos="286.40" arrivalSpeed="11.29" duration="190.00" routeLength="1495.58" waitingTime="45.00" waitingCount="2" stopTime="0.00" timeLoss="69.93" rerouteNo="0" devices="tripinfo_1" vType="DEFAULT_VEHTYPE" speedFactor="0.90" vaporized=""/>
    <tripinfo id="2" depart="36.00" departLane="top1B3_0" departPos="5.10" departSpeed="0.00" departDelay="0.00" arrival="216.00" arrivalLane="B3top1_0" arrivalPos="286.40" arrivalSpeed="11.99" duration="180.00" routeLength="1748.75" waitingTime="9.00" waitingCount="3" stopTime="0.00" timeLoss="38.83" rerouteNo="0" devices="tripinfo_2" vType="DEFAULT_VEHTYPE" speedFactor="0.91" vaporized=""/>
    <tripinfo id="3" depart="37.00" departLane="bottom2C0_0" departPos="5.10" departSpeed="0.00" departDelay="0.00" arrival="231.00" arrivalLane="A0bottom0_0" arrivalPos="286.40" arrivalSpeed="12.49" duration="194.00" routeLength="1197.66" waitingTime="79.00" waitingCount="3" stopTime="0.00" timeLoss="101.44" rerouteNo="0" devices="tripinfo_3" vType="DEFAULT_VEHTYPE" speedFactor="0.95" vaporized=""/>
    <tripinfo id="10" depart="66.00" departLane="left1A1_0" departPos="5.10" departSpeed="0.00" departDelay="0.00" arrival="249.00" arrivalLane="D1right1_0" arrivalPos="286.40" arrivalSpeed="13.83" duration="183.00" routeLength="1495.58" waitingTime="53.00" waitingCount="3" stopTime="0.00" timeLoss="80.40" rerouteNo="0" devices="tripinfo_10" vType="DEFAULT_VEHTYPE" speedFactor="1.05" vaporized=""/>
    <tripinfo id="13" depart="76.00" departLane="bottom1B0_0" departPos="5.10" departSpeed="0.00" departDelay="0.00" arrival="250.00" arrivalLane="D1right1_1" arrivalPos="286.40" arrivalSpeed="14.68" duration="174.00" routeLength="1479.94" waitingTime="38.00" waitingCount="4" stopTime="0.00" timeLoss="76.75" rerouteNo="0" devices="tripinfo_13" vType="DEFAULT_VEHTYPE" speedFactor="1.11" vaporized=""/>
    <tripinfo id="15" depart="95.00" departLane="bottom0A0_0" departPos="5.10" departSpeed="0.00" departDelay="0.00" arrival="251.00" arrivalLane="A2left2_0" arrivalPos="286.40" arrivalSpeed="12.40" duration="156.00" routeLength="1197.89" waitingTime="50.00" waitingCount="1" stopTime="0.00" timeLoss="62.48" rerouteNo="0" devices="tripinfo_15" vType="DEFAULT_VEHTYPE" speedFactor="0.94" vaporized=""/>
    <tripinfo id="12" depart="73.00" departLane="bottom1B0_0" departPos="5.10" departSpeed="0.00" departDelay="0.00" arrival="264.00" arrivalLane="A1left1_0" arrivalPos="286.40" arrivalSpeed="12.90" duration="191.00" routeLength="1195.18" waitingTime="80.00" waitingCount="2" stopTime="0.00" timeLoss="99.37" rerouteNo="0" devices="tripinfo_12" vType="DEFAULT_VEHTYPE" speedFactor="0.94" vaporized=""/>
    <tripinfo id="4" depart="41.00" departLane="left2A2_0" departPos="5.10" departSpeed="0.00" departDelay="0.00" arrival="271.00" arrivalLane="C0bottom2_0" arrivalPos="286.40" arrivalSpeed="11.83" duration="230.00" routeLength="1780.11" waitingTime="57.00" waitingCount="4" stopTime="0.00" timeLoss="90.44" rerouteNo="0" devices="tripinfo_4" vType="DEFAULT_VEHTYPE" speedFactor="0.93" vaporized=""/>
    <tripinfo id="0" depart="3.00" departLane="bottom2C0_0" departPos="5.10" departSpeed="0.00" departDelay="0.00" arrival="272.00" arrivalLane="D3right3_0" arrivalPos="286.40" arrivalSpeed="11.51" duration="269.00" routeLength="1780.11" waitingTime="95.00" waitingCount="3" stopTime="0.00" timeLoss="127.77" rerouteNo="0" devices="tripinfo_0" vType="DEFAULT_VEHTYPE" speedFactor="0.92" vaporized=""/>
    <tripinfo id="31" depart="225.00" departLane="left0A0_0" departPos="5.10" departSpeed="0.00" departDelay="0.00" arrival="280.00" arrivalLane="A0bottom0_0" arrivalPos="286.40" arrivalSpeed="13.64" duration="55.00" routeLength="576.73" waitingTime="1.00" waitingCount="1" stopTime="0.00" timeLoss="12.52" rerouteNo="0" devices="tripinfo_31" vType="DEFAULT_VEHTYPE" speedFactor="1.01" vaporized=""/>
    <tripinfo id="11" depart="72.00" departLane="left2A2_0" departPos="5.10" departSpeed="0.00" departDelay="0.00" arrival="290.00" arrivalLane="D0right0_0" arrivalPos="286.40" arrivalSpeed="14.96" duration="218.00" routeLength="2082.76" waitingTime="42.00" waitingCount="4" stopTime="0.00" timeLoss="76.92" rerouteNo="0" devices="tripinfo_11" vType="DEFAULT_VEHTYPE" speedFactor="1.08" vaporized=""/>
    <tripinfo id="7" depart="56.00" departLane="top3D3_0" departPos="5.10" departSpeed="0.00" departDelay="0.00" arrival="295.00" arrivalLane="A2left2_0" arrivalPos="286.40" arrivalSpeed="17.19" duration="239.00" routeLength="1780.11" waitingTime="101.00" waitingCount="4" stopTime="0.00" timeLoss="134.67" rerouteNo="0" devices="tripinfo_7" vType="DEFAULT_VEHTYPE" speedFactor="1.24" vaporized=""/>
    <tripinfo id="32" depart="227.00" departLane="left2A2_0" departPos="5.10" departSpeed="0.00" departDelay="0.00" arrival="306.00" arrivalLane="A1left1_0" arrivalPos="286.40" arrivalSpeed="14.40" duration="79.00" routeLength="858.56" waitingTime="2.00" waitingCount="2" stopTime="0.00" timeLoss="19.94" rerouteNo="0" devices="tripinfo_32" vType="DEFAULT_VEHTYPE" speedFactor="1.07" vaporized=""/>
    <tripinfo id="22" depart="160.00" departLane="right2D2_0" departPos="5.10" departSpeed="0.00" departDelay="0.00" arrival="330.00" arrivalLane="B3top1_0" arrivalPos="286.40" arrivalSpeed="12.87" duration="170.00" routeLength="1479.94" waitingTime="32.00" waitingCount="3" stopTime="0.00" timeLoss="56.34" rerouteNo="0" devices="tripinfo_22" vType="DEFAULT_VEHTYPE" speedFactor="0.95" vaporized=""/>
    <tripinfo id="16" depart="104.00" departLane="right2D2_0" departPos="5.10" departSpeed="0.00" departDelay="0.00" arrival="339.00" arrivalLane="A3left3_0" arrivalPos="286.40" arrivalSpeed="13.69" duration="235.00" routeLength="1782.72" waitingTime="81.00" waitingCount="4" stopTime="0.00" timeLoss="112.45" rerouteNo="0" devices="tripinfo_16" vType="DEFAULT_VEHTYPE" speedFactor="1.06" vaporized=""/>
    <tripinfo id="44" depart="264.00" departLane="left0A0_0" departPos="5.10" departSpeed="0.00" departDelay="0.00" arrival="344.00" arrivalLane="B0bottom1_0" arrivalPos="286.40" arrivalSpeed="14.56" duration="80.00" routeLength="876.90" waitingTime="4.00" waitingCount="2" stopTime="0.00" timeLoss="21.22" rerouteNo="0" devices="tripinfo_44" vType="DEFAULT_VEHTYPE" speedFactor="1.09" vaporized=""/>
    <tripinfo id="19" depart="122.00" departLane="top0A3_0" departPos="5.10" departSpeed="0.00" departDelay="0.00" arrival="345.00" arrivalLane="A0bottom0_0" arrivalPos="286.40" arrivalSpeed="16.16" duration="223.00" routeLength="1495.58" waitingTime="103.00" waitingCount="3" stopTime="0.00" timeLoss="132.14" rerouteNo="0" devices="tripinfo_19" vType="DEFAULT_VEHTYPE" speedFactor="1.19" vaporized=""/>
    <tripinfo id="23" depart="160.00" departLane="bottom2C0_0" departPos="5.10" departSpeed="0.00" departDelay="0.00" arrival="348.00" arrivalLane="A1left1_0" arrivalPos="286.40" arrivalSpeed="14.46" duration="188.00" routeLength="1495.35" waitingTime="53.00" waitingCount="4" stopTime="0.00" timeLoss="89.08" rerouteNo="0" devices="tripinfo_23" vType="DEFAULT_VEHTYPE" speedFactor="1.10" vaporized=""/>
    <tripinfo id="33" depart="227.00" departLane="bottom1B0_0" departPos="5.10" departSpeed="0.00" departDelay="0.00" arrival="354.00" arrivalLane="D0bottom3_0" arrivalPos="286.40" arrivalSpeed="11.89" duration="127.00" routeLength="1161.43" waitingTime="5.00" waitingCount="3" stopTime="0.00" timeLoss="29.17" rerouteNo="0" devices="tripinfo_33" vType="DEFAULT_VEHTYPE" speedFactor="0.87" vaporized=""/>
    <tripinfo id="20" depart="137.00" departLane="bottom1B0_0" departPos="5.10" departSpeed="0.00" departDelay="0.00" arrival="357.00" arrivalLane="D2right2_0" arrivalPos="286.40" arrivalSpeed="14.75" duration="220.00" routeLength="1780.11" waitingTime="71.00" waitingCount="4" stopTime="0.00" timeLoss="104.33" rerouteNo="0" devices="tripinfo_20" vType="DEFAULT_VEHTYPE" speedFactor="1.12" vaporized=""/>
    <tripinfo id="54" depart="313.00" departLane="left0A0_0" departPos="5.10" departSpeed="0.00" departDelay="0.00" arrival="360.00" arrivalLane="A0bottom0_0" arrivalPos="286.40" arrivalSpeed="15.67" duration="47.00" routeLength="576.73" waitingTime="1.00" waitingCount="1" stopTime="0.00" timeLoss="10.91" rerouteNo="0" devices="tripinfo_54" vType="DEFAULT_VEHTYPE" speedFactor="1.17" vaporized=""/>
    <tripinfo id="24" depart="183.00" departLane="top0A3_0" departPos="5.10" departSpeed="0.00" departDelay="0.00" arrival="366.00" arrivalLane="A0left0_0" arrivalPos="286.40" arrivalSpeed="12.08" duration="183.00" routeLength="1477.24" waitingTime="32.00" waitingCount="3" stopTime="0.00" timeLoss="61.50" rerouteNo="0" devices="tripinfo_24" vType="DEFAULT_VEHTYPE" speedFactor="0.88" vaporized=""/>
    <tripinfo id="30" depart="223.00" departLane="left1A1_0" departPos="5.10" departSpeed="0.00" departDelay="0.00" arrival="368.00" arrivalLane="B3top1_0" arrivalPos="286.40" arrivalSpeed="14.34" duration="145.00" routeLength="1495.35" waitingTime="18.00" waitingCount="3" stopTime="0.00" timeLoss="43.14" rerouteNo="0" devices="tripinfo_30" vType="DEFAULT_VEHTYPE" speedFactor="1.07" vaporized=""/>
    <tripinfo id="41" depart="252.00" departLane="left2A2_0" departPos="5.10" departSpeed="0.00" departDelay="0.00" arrival="371.00" arrivalLane="A0left0_0" arrivalPos="286.40" arrivalSpeed="12.18" duration="119.00" routeLength="1161.43" waitingTime="3.00" waitingCount="3" stopTime="0.00" timeLoss="28.30" rerouteNo="0" devices="tripinfo_41" vType="DEFAULT_VEHTYPE" speedFactor="0.94" vaporized=""/>
    <tripinfo id="27" depart="211.00" departLane="top3D3_0" departPos="5.10" departSpeed="0.00" departDelay="0.00" arrival="376.00" arrivalLane="A3top0_0" arrivalPos="286.40" arrivalSpeed="10.72" duration="165.00" routeLength="1461.60" waitingTime="11.00" waitingCount="3" stopTime="0.00" timeLoss="36.07" rerouteNo="0" devices="tripinfo_27" vType="DEFAULT_VEHTYPE" speedFactor="0.82" vaporized=""/>
    <tripinfo id="34" depart="228.00" departLane="bottom0A0_0" departPos="5.10" departSpeed="0.00" departDelay="0.00" arrival="391.00" arrivalLane="D0bottom3_0" arrivalPos="286.40" arrivalSpeed="11.98" duration="163.00" routeLength="1461.60" waitingTime="19.00" waitingCount="4" stopTime="0.00" timeLoss="46.94" rerouteNo="0" devices="tripinfo_34" vType="DEFAULT_VEHTYPE" speedFactor="0.92" vaporized=""/>
    <tripinfo id="53" depart="312.00" departLane="right0D0_0" departPos="5.10" departSpeed="0.00" departDelay="0.00" arrival="394.00" arrivalLane="C0bottom2_0" arrivalPos="286.40" arrivalSpeed="11.92" duration="82.00" routeLength="897.72" waitingTime="0.00" waitingCount="0" stopTime="0.00" timeLoss="7.08" rerouteNo="0" devices="tripinfo_53" vType="DEFAULT_VEHTYPE" speedFactor="0.88" vaporized=""/>
    <tripinfo id="18" depart="119.00" departLane="top2C3_0" departPos="5.10" departSpeed="0.00" departDelay="0.00" arrival="395.00" arrivalLane="A0bottom0_0" arrivalPos="286.40" arrivalSpeed="12.89" duration="276.00" routeLength="2082.76" waitingTime="90.00" waitingCount="3" stopTime="0.00" timeLoss="117.47" rerouteNo="0" devices="tripinfo_18" vType="DEFAULT_VEHTYPE" speedFactor="0.96" vaporized=""/>
    <tripinfo id="36" depart="231.00" departLane="bottom0A0_0" departPos="5.10" departSpeed="0.00" departDelay="2.00" arrival="399.00" arrivalLane="D0right0_1" arrivalPos="286.40" arrivalSpeed="14.54" duration="168.00" routeLength="1479.94" waitingTime="23.00" waitingCount="4" stopTime="0.00" timeLoss="69.39" rerouteNo="0" devices="tripinfo_36" vType="DEFAULT_VEHTYPE" speedFactor="1.09" vaporized=""/>
    <tripinfo id="29" depart="220.00" departLane="left1A1_0" departPos="5.10" departSpeed="0.00" departDelay="0.00" arrival="400.00" arrivalLane="A1left1_1" arrivalPos="286.40" arrivalSpeed="14.49" duration="180.00" routeLength="1748.75" waitingTime="22.00" waitingCount="5" stopTime="0.00" timeLoss="60.95" rerouteNo="0" devices="tripinfo_29" vType="DEFAULT_VEHTYPE" speedFactor="1.08" vaporized=""/>
    <tripinfo id="47" depart="278.00" departLane="left0A0_0" departPos="5.10" departSpeed="0.00" departDelay="0.00" arrival="402.00" arrivalLane="A1left1_0" arrivalPos="286.40" arrivalSpeed="11.67" duration="124.00" routeLength="894.86" waitingTime="35.00" waitingCount="2" stopTime="0.00" timeLoss="51.39" rerouteNo="0" devices="tripinfo_47" vType="DEFAULT_VEHTYPE" speedFactor="0.91" vaporized=""/>
    <tripinfo id="28" depart="220.00" departLane="left3A3_0" departPos="5.10" departSpeed="0.00" departDelay="0.00" arrival="403.00" arrivalLane="D3top3_0" arrivalPos="286.40" arrivalSpeed="13.40" duration="183.00" routeLength="1498.06" waitingTime="46.00" waitingCount="3" stopTime="0.00" timeLoss="72.97" rerouteNo="0" devices="tripinfo_28" vType="DEFAULT_VEHTYPE" speedFactor="0.98" vaporized=""/>
    <tripinfo id="40" depart="252.00" departLane="bottom1B0_0" departPos="5.10" departSpeed="0.00" departDelay="0.00" arrival="403.00" arrivalLane="D0right0_0" arrivalPos="286.40" arrivalSpeed="11.57" duration="151.00" routeLength="1179.77" waitingTime="25.00" waitingCount="3" stopTime="0.00" timeLoss="49.12" rerouteNo="0" devices="tripinfo_40" vType="DEFAULT_VEHTYPE" speedFactor="0.84" vaporized=""/>
    <tripinfo id="21" depart="148.00" departLane="left0A0_0" departPos="5.10" departSpeed="0.00" departDelay="0.00" arrival="405.00" arrivalLane="A0left0_0" arrivalPos="286.40" arrivalSpeed="15.99" duration="257.00" routeLength="1745.91" waitingTime="121.00" waitingCount="3" stopTime="0.00" timeLoss="151.27" rerouteNo="0" devices="tripinfo_21" vType="DEFAULT_VEHTYPE" speedFactor="1.21" vaporized=""/>
    <tripinfo id="55" depart="315.00" departLane="right0D0_0" departPos="5.10" departSpeed="0.00" departDelay="0.00" arrival="408.00" arrivalLane="D1right1_0" arrivalPos="286.40" arrivalSpeed="10.70" duration="93.00" routeLength="858.56" waitingTime="2.00" waitingCount="2" stopTime="0.00" timeLoss="18.63" rerouteNo="0" devices="tripinfo_55" vType="DEFAULT_VEHTYPE" speedFactor="0.85" vaporized=""/>
    <tripinfo id="37" depart="242.00" departLane="right1D1_0" departPos="5.10" departSpeed="0.00" departDelay="0.00" arrival="411.00" arrivalLane="A1left1_0" arrivalPos="286.40" arrivalSpeed="12.30" duration="169.00" routeLength="1495.58" waitingTime="26.00" waitingCount="4" stopTime="0.00" timeLoss="55.68" rerouteNo="0" devices="tripinfo_37" vType="DEFAULT_VEHTYPE" speedFactor="0.96" vaporized=""/>
    <tripinfo id="45" depart="269.00" departLane="left2A2_0" departPos="5.10" departSpeed="0.00" departDelay="0.00" arrival="414.00" arrivalLane="B3top1_0" arrivalPos="286.40" arrivalSpeed="12.38" duration="145.00" routeLength="1195.18" waitingTime="38.00" waitingCount="2" stopTime="0.00" timeLoss="54.72" rerouteNo="0" devices="tripinfo_45" vType="DEFAULT_VEHTYPE" speedFactor="0.96" vaporized=""/>
    <tripinfo id="43" depart="260.00" departLane="bottom3D0_0" departPos="5.10" departSpeed="0.00" departDelay="0.00" arrival="427.00" arrivalLane="D3right3_0" arrivalPos="286.40" arrivalSpeed="12.97" duration="167.00" routeLength="1477.24" waitingTime="37.00" waitingCount="2" stopTime="0.00" timeLoss="58.15" rerouteNo="0" devices="tripinfo_43" vType="DEFAULT_VEHTYPE" speedFactor="0.98" vaporized=""/>
    <tripinfo id="50" depart="304.00" departLane="right3D3_0" departPos="5.10" departSpeed="0.00" departDelay="0.00" arrival="432.00" arrivalLane="D1right1_0" arrivalPos="286.40" arrivalSpeed="11.76" duration="128.00" routeLength="1197.66" waitingTime="13.00" waitingCount="2" stopTime="0.00" timeLoss="31.48" rerouteNo="0" devices="tripinfo_50" vType="DEFAULT_VEHTYPE" speedFactor="0.91" vaporized=""/>
    <tripinfo id="52" depart="311.00" departLane="top1B3_0" departPos="5.10" departSpeed="0.00" departDelay="0.00" arrival="439.00" arrivalLane="D3top3_0" arrivalPos="286.40" arrivalSpeed="13.49" duration="128.00" routeLength="1197.66" waitingTime="27.00" waitingCount="1" stopTime="0.00" timeLoss="40.61" rerouteNo="0" devices="tripinfo_52" vType="DEFAULT_VEHTYPE" speedFactor="1.00" vaporized=""/>
    <tripinfo id="38" depart="246.00" departLane="top0A3_0" departPos="5.10" departSpeed="0.00" departDelay="0.00" arrival="441.00" arrivalLane="D3top3_0" arrivalPos="286.40" arrivalSpeed="13.49" duration="195.00" routeLength="1497.83" waitingTime="72.00" waitingCount="2" stopTime="0.00" timeLoss="91.83" rerouteNo="0" devices="tripinfo_38" vType="DEFAULT_VEHTYPE" speedFactor="1.06" vaporized=""/>
    <tripinfo id="58" depart="321.00" departLane="left1A1_0" departPos="5.10" departSpeed="0.00" departDelay="0.00" arrival="450.00" arrivalLane="A2left2_0" arrivalPos="286.40" arrivalSpeed="12.47" duration="129.00" routeLength="894.86" waitingTime="45.00" waitingCount="2" stopTime="0.00" timeLoss="61.33" rerouteNo="0" devices="tripinfo_58" vType="DEFAULT_VEHTYPE" speedFactor="0.97" vaporized=""/>
    <tripinfo id="70" depart="378.00" departLane="top2C3_0" departPos="5.10" departSpeed="0.00" departDelay="0.00" arrival="452.00" arrivalLane="B3top1_0" arrivalPos="286.40" arrivalSpeed="15.97" duration="74.00" routeLength="858.56" waitingTime="2.00" waitingCount="2" stopTime="0.00" timeLoss="19.77" rerouteNo="0" devices="tripinfo_70" vType="DEFAULT_VEHTYPE" speedFactor="1.18" vaporized=""/>
    <tripinfo id="39" depart="250.00" departLane="right1D1_0" departPos="5.10" departSpeed="0.00" departDelay="0.00" arrival="457.00" arrivalLane="A0bottom0_0" arrivalPos="286.40" arrivalSpeed="15.58" duration="207.00" routeLength="1795.52" waitingTime="45.00" waitingCount="3" stopTime="0.00" timeLoss="96.01" rerouteNo="0" devices="tripinfo_39" vType="DEFAULT_VEHTYPE" speedFactor="1.18" vaporized=""/>
    <tripinfo id="72" depart="390.00" departLane="top3D3_0" departPos="5.10" departSpeed="0.00" departDelay="0.00" arrival="461.00" arrivalLane="D3right3_0" arrivalPos="286.40" arrivalSpeed="12.16" duration="71.00" routeLength="597.55" waitingTime="12.00" waitingCount="1" stopTime="0.00" timeLoss="23.72" rerouteNo="0" devices="tripinfo_72" vType="DEFAULT_VEHTYPE" speedFactor="0.92" vaporized=""/>
    <tripinfo id="35" depart="228.00" departLane="bottom3D0_0" departPos="5.10" departSpeed="0.00" departDelay="0.00" arrival="466.00" arrivalLane="B3top1_0" arrivalPos="286.40" arrivalSpeed="14.29" duration="238.00" routeLength="2080.05" waitingTime="65.00" waitingCount="2" stopTime="0.00" timeLoss="91.50" rerouteNo="0" devices="tripinfo_35" vType="DEFAULT_VEHTYPE" speedFactor="1.03" vaporized=""/>
    <tripinfo id="25" depart="183.00" departLane="top2C3_0" departPos="5.10" departSpeed="0.00" departDelay="0.00" arrival="478.00" arrivalLane="A0left0_0" arrivalPos="286.40" arrivalSpeed="14.34" duration="295.00" routeLength="2080.28" waitingTime="104.00" waitingCount="6" stopTime="0.00" timeLoss="150.64" rerouteNo="0" devices="tripinfo_25" vType="DEFAULT_VEHTYPE" speedFactor="1.04" vaporized=""/>
    <tripinfo id="74" depart="400.00" departLane="top3D3_0" departPos="5.10" departSpeed="0.00" departDelay="0.00" arrival="478.00" arrivalLane="C3top2_0" arrivalPos="286.40" arrivalSpeed="13.46" duration="78.00" routeLength="858.56" waitingTime="1.00" waitingCount="1" stopTime="0.00" timeLoss="15.15" rerouteNo="0" devices="tripinfo_74" vType="DEFAULT_VEHTYPE" speedFactor="1.02" vaporized=""/>
    <tripinfo id="60" depart="328.00" departLane="top0A3_0" departPos="5.10" departSpeed="0.00" departDelay="0.00" arrival="488.00" arrivalLane="B0bottom1_0" arrivalPos="286.40" arrivalSpeed="14.15" duration="160.00" routeLength="1782.59" waitingTime="10.00" waitingCount="3" stopTime="0.00" timeLoss="36.15" rerouteNo="0" devices="tripinfo_60" vType="DEFAULT_VEHTYPE" speedFactor="1.05" vaporized=""/>
    <tripinfo id="48" depart="291.00" departLane="right3D3_0" departPos="5.10" departSpeed="0.00" departDelay="0.00" arrival="492.00" arrivalLane="D3right3_0" arrivalPos="286.40" arrivalSpeed="11.61" duration="201.00" routeLength="1745.91" waitingTime="20.00" waitingCount="5" stopTime="0.00" timeLoss="55.75" rerouteNo="0" devices="tripinfo_48" vType="DEFAULT_VEHTYPE" speedFactor="0.88" vaporized=""/>
    <tripinfo id="26" depart="187.00" departLane="top2C3_0" departPos="5.10" departSpeed="0.00" departDelay="0.00" arrival="493.00" arrivalLane="A0bottom0_0" arrivalPos="286.40" arrivalSpeed="11.61" duration="306.00" routeLength="2082.76" waitingTime="90.00" waitingCount="4" stopTime="0.00" timeLoss="131.02" rerouteNo="0" devices="tripinfo_26" vType="DEFAULT_VEHTYPE" speedFactor="0.87" vaporized=""/>
    <tripinfo id="51" depart="308.00" departLane="top2C3_0" departPos="5.10" departSpeed="0.00" departDelay="0.00" arrival="493.00" arrivalLane="C3top2_0" arrivalPos="286.40" arrivalSpeed="13.14" duration="185.00" routeLength="1748.75" waitingTime="33.00" waitingCount="2" stopTime="0.00" timeLoss="57.47" rerouteNo="0" devices="tripinfo_51" vType="DEFAULT_VEHTYPE" speedFactor="1.01" vaporized=""/>
    <tripinfo id="46" depart="277.00" departLane="right0D0_0" departPos="5.10" departSpeed="0.00" departDelay="0.00" arrival="494.00" arrivalLane="C3top2_1" arrivalPos="286.40" arrivalSpeed="16.30" duration="217.00" routeLength="1780.11" waitingTime="79.00" waitingCount="4" stopTime="0.00" timeLoss="113.88" rerouteNo="0" devices="tripinfo_46" vType="DEFAULT_VEHTYPE" speedFactor="1.26" vaporized=""/>
    <tripinfo id="59" depart="322.00" departLane="bottom1B0_0" departPos="5.10" departSpeed="0.00" departDelay="0.00" arrival="499.00" arrivalLane="A1left1_0" arrivalPos="286.40" arrivalSpeed="12.79" duration="177.00" routeLength="1195.18" waitingTime="65.00" waitingCount="3" stopTime="0.00" timeLoss="89.16" rerouteNo="0" devices="tripinfo_59" vType="DEFAULT_VEHTYPE" speedFactor="0.98" vaporized=""/>
    <tripinfo id="65" depart="351.00" departLane="left2A2_0" departPos="5.10" departSpeed="0.00" departDelay="0.00" arrival="504.00" arrivalLane="C0bottom2_0" arrivalPos="286.40" arrivalSpeed="12.09" duration="153.00" routeLength="1780.11" waitingTime="2.00" waitingCount="1" stopTime="0.00" timeLoss="17.45" rerouteNo="0" devices="tripinfo_65" vType="DEFAULT_VEHTYPE" speedFactor="0.96" vaporized=""/>
    <tripinfo id="42" depart="259.00" departLane="top2C3_0" departPos="5.10" departSpeed="0.00" departDelay="0.00" arrival="507.00" arrivalLane="D0bottom3_0" arrivalPos="286.40" arrivalSpeed="14.28" duration="248.00" routeLength="1782.59" waitingTime="99.00" waitingCount="4" stopTime="0.00" timeLoss="129.44" rerouteNo="0" devices="tripinfo_42" vType="DEFAULT_VEHTYPE" speedFactor="1.10" vaporized=""/>
    <tripinfo id="71" depart="388.00" departLane="bottom0A0_0" departPos="5.10" departSpeed="0.00" departDelay="0.00" arrival="513.00" arrivalLane="A3top0_0" arrivalPos="286.40" arrivalSpeed="13.23" duration="125.00" routeLength="1495.58" waitingTime="1.00" waitingCount="1" stopTime="0.00" timeLoss="14.75" rerouteNo="0" devices="tripinfo_71" vType="DEFAULT_VEHTYPE" speedFactor="0.98" vaporized=""/>
    <tripinfo id="90" depart="440.00" departLane="left3A3_0" departPos="5.10" departSpeed="0.00" departDelay="0.00" arrival="515.00" arrivalLane="A2left2_0" arrivalPos="286.40" arrivalSpeed="16.16" duration="75.00" routeLength="858.56" waitingTime="2.00" waitingCount="2" stopTime="0.00" timeLoss="20.41" rerouteNo="0" devices="tripinfo_90" vType="DEFAULT_VEHTYPE" speedFactor="1.17" vaporized=""/>
    <tripinfo id="75" depart="401.00" departLane="bottom3D0_0" departPos="5.10" departSpeed="0.00" departDelay="0.00" arrival="531.00" arrivalLane="C0bottom2_0" arrivalPos="286.40" arrivalSpeed="12.17" duration="130.00" routeLength="894.86" waitingTime="44.00" waitingCount="2" stopTime="0.00" timeLoss="60.21" rerouteNo="0" devices="tripinfo_75" vType="DEFAULT_VEHTYPE" speedFactor="0.95" vaporized=""/>
    <tripinfo id="81" depart="414.00" departLane="bottom3D0_0" departPos="5.10" departSpeed="0.00" departDelay="0.00" arrival="533.00" arrivalLane="C0bottom2_0" arrivalPos="286.40" arrivalSpeed="12.04" duration="119.00" routeLength="894.86" waitingTime="31.00" waitingCount="2" stopTime="0.00" timeLoss="49.11" rerouteNo="0" devices="tripinfo_81" vType="DEFAULT_VEHTYPE" speedFactor="0.94" vaporized=""/>
    <tripinfo id="63" depart="341.00" departLane="bottom1B0_0" departPos="5.10" departSpeed="0.00" departDelay="0.00" arrival="537.00" arrivalLane="D0bottom3_0" arrivalPos="286.40" arrivalSpeed="14.06" duration="196.00" routeLength="1161.43" waitingTime="88.00" waitingCount="3" stopTime="0.00" timeLoss="113.50" rerouteNo="0" devices="tripinfo_63" vType="DEFAULT_VEHTYPE" speedFactor="1.03" vaporized=""/>
    <tripinfo id="66" depart="361.00" departLane="bottom1B0_0" departPos="5.10" departSpeed="0.00" departDelay="0.00" arrival="537.00" arrivalLane="D0right0_0" arrivalPos="286.40" arrivalSpeed="15.39" duration="176.00" routeLength="1179.77" waitingTime="77.00" waitingCount="2" stopTime="0.00" timeLoss="98.91" rerouteNo="0" devices="tripinfo_66" vType="DEFAULT_VEHTYPE" speedFactor="1.11" vaporized=""/>
    <tripinfo id="62" depart="337.00" departLane="right3D3_0" departPos="5.10" departSpeed="0.00" departDelay="0.00" arrival="538.00" arrivalLane="D3right3_0" arrivalPos="286.40" arrivalSpeed="14.11" duration="201.00" routeLength="1745.91" waitingTime="49.00" waitingCount="3" stopTime="0.00" timeLoss="77.16" rerouteNo="0" devices="tripinfo_62" vType="DEFAULT_VEHTYPE" speedFactor="1.04" vaporized=""/>
    <tripinfo id="69" depart="371.00" departLane="bottom1B0_0" departPos="5.10" departSpeed="0.00" departDelay="0.00" arrival="540.00" arrivalLane="D0bottom3_0" arrivalPos="286.40" arrivalSpeed="13.23" duration="169.00" routeLength="1161.43" waitingTime="59.00" waitingCount="2" stopTime="0.00" timeLoss="83.29" rerouteNo="0" devices="tripinfo_69" vType="DEFAULT_VEHTYPE" speedFactor="1.00" vaporized=""/>
    <tripinfo id="49" depart="294.00" departLane="bottom3D0_0" departPos="5.10" departSpeed="0.00" departDelay="0.00" arrival="541.00" arrivalLane="B3top1_0" arrivalPos="286.40" arrivalSpeed="12.17" duration="247.00" routeLength="2080.05" waitingTime="54.00" waitingCount="2" stopTime="0.00" timeLoss="86.07" rerouteNo="0" devices="tripinfo_49" vType="DEFAULT_VEHTYPE" speedFactor="0.94" vaporized=""/>