<?xml version="1.0" encoding="UTF-8"?>

<!-- generated on 12/10/21 11:05:52 by Eclipse SUMO sumo Version 1.7.0
<configuration xmlns:xsi="http://www.w3.org/2001/XMLSchema-instance" xsi:noNamespaceSchemaLocation="http://sumo.dlr.de/xsd/sumoConfiguration.xsd">

    <input>
        <net-file value="C:\Users\longs\Desktop\RESCO-main\environments\grid4x4\grid4x4.net.xml"/>
        <route-files value="C:\Users\longs\Desktop\RESCO-main\environments\grid4x4\grid4x4_4.rou.xml"/>
    </input>

    <output>
        <tripinfo-output value="C:\Users\longs\Desktop\RESCO-main\logs\IDQN-tr1-grid4x4-0-drqlong-delaydiff_pressure\tripinfo_4.xml"/>
        <tripinfo-output.write-unfinished value="true"/>
    </output>

    <processing>
        <time-to-teleport value="-1"/>
    </processing>

    <report>
        <no-warnings value="true"/>
        <no-step-log value="true"/>
    </report>

    <traci_server>
        <remote-port value="53054"/>
    </traci_server>

    <random_number>
        <random value="true"/>
    </random_number>

</configuration>
-->

<tripinfos xmlns:xsi="http://www.w3.org/2001/XMLSchema-instance" xsi:noNamespaceSchemaLocation="http://sumo.dlr.de/xsd/tripinfo_file.xsd">
    <tripinfo id="0" depart="4.00" departLane="bottom0A0_0" departPos="5.10" departSpeed="0.00" departDelay="0.00" arrival="78.00" arrivalLane="B0bottom1_0" arrivalPos="286.40" arrivalSpeed="14.75" duration="74.00" routeLength="858.56" waitingTime="1.00" waitingCount="1" stopTime="0.00" timeLoss="16.23" rerouteNo="0" devices="tripinfo_0" vType="DEFAULT_VEHTYPE" speedFactor="1.10" vaporized=""/>
    <tripinfo id="14" depart="60.00" departLane="bottom0A0_0" departPos="5.10" departSpeed="0.00" departDelay="0.00" arrival="133.00" arrivalLane="B0bottom1_0" arrivalPos="286.40" arrivalSpeed="13.87" duration="73.00" routeLength="858.56" waitingTime="1.00" waitingCount="1" stopTime="0.00" timeLoss="14.52" rerouteNo="0" devices="tripinfo_14" vType="DEFAULT_VEHTYPE" speedFactor="1.08" vaporized=""/>
    <tripinfo id="17" depart="82.00" departLane="top1B3_0" departPos="5.10" departSpeed="0.00" departDelay="0.00" arrival="162.00" arrivalLane="A3left3_0" arrivalPos="286.40" arrivalSpeed="12.39" duration="80.00" routeLength="879.60" waitingTime="1.00" waitingCount="1" stopTime="0.00" timeLoss="12.82" rerouteNo="0" devices="tripinfo_17" vType="DEFAULT_VEHTYPE" speedFactor="0.96" vaporized=""/>
    <tripinfo id="10" depart="34.00" departLane="top0A3_0" departPos="5.10" departSpeed="0.00" departDelay="0.00" arrival="181.00" arrivalLane="A1left1_0" arrivalPos="286.40" arrivalSpeed="11.29" duration="147.00" routeLength="1177.07" waitingTime="25.00" waitingCount="2" stopTime="0.00" timeLoss="48.76" rerouteNo="0" devices="tripinfo_10" vType="DEFAULT_VEHTYPE" speedFactor="0.88" vaporized=""/>
    <tripinfo id="19" depart="83.00" departLane="left0A0_0" departPos="5.10" departSpeed="0.00" departDelay="0.00" arrival="198.00" arrivalLane="B0bottom1_0" arrivalPos="286.40" arrivalSpeed="12.80" duration="115.00" routeLength="876.90" waitingTime="32.00" waitingCount="2" stopTime="0.00" timeLoss="50.92" rerouteNo="0" devices="tripinfo_19" vType="DEFAULT_VEHTYPE" speedFactor="1.00" vaporized=""/>
    <tripinfo id="4" depart="17.00" departLane="left1A1_0" departPos="5.10" departSpeed="0.00" departDelay="0.00" arrival="203.00" arrivalLane="A1left1_0" arrivalPos="286.40" arrivalSpeed="11.92" duration="186.00" routeLength="1748.75" waitingTime="16.00" waitingCount="2" stopTime="0.00" timeLoss="44.37" rerouteNo="0" devices="tripinfo_4" vType="DEFAULT_VEHTYPE" speedFactor="0.91" vaporized=""/>
    <tripinfo id="3" depart="13.00" departLane="bottom2C0_0" departPos="5.10" departSpeed="0.00" departDelay="0.00" arrival="210.00" arrivalLane="D1right1_0" arrivalPos="286.40" arrivalSpeed="12.19" duration="197.00" routeLength="1179.77" waitingTime="84.00" waitingCount="3" stopTime="0.00" timeLoss="105.84" rerouteNo="0" devices="tripinfo_3" vType="DEFAULT_VEHTYPE" speedFactor="0.94" vaporized=""/>
    <tripinfo id="9" depart="28.00" departLane="bottom2C0_0" departPos="5.10" departSpeed="0.00" departDelay="0.00" arrival="214.00" arrivalLane="D1right1_0" arrivalPos="286.40" arrivalSpeed="11.95" duration="186.00" routeLength="1179.77" waitingTime="68.00" waitingCount="2" stopTime="0.00" timeLoss="88.46" rerouteNo="0" devices="tripinfo_9" vType="DEFAULT_VEHTYPE" speedFactor="0.88" vaporized=""/>
    <tripinfo id="8" depart="27.00" departLane="top2C3_0" departPos="5.10" departSpeed="0.00" departDelay="0.00" arrival="221.00" arrivalLane="D0bottom3_0" arrivalPos="286.40" arrivalSpeed="12.65" duration="194.00" routeLength="1782.59" waitingTime="25.00" waitingCount="5" stopTime="0.00" timeLoss="60.64" rerouteNo="0" devices="tripinfo_8" vType="DEFAULT_VEHTYPE" speedFactor="0.98" vaporized=""/>
    <tripinfo id="7" depart="21.00" departLane="top2C3_0" departPos="5.10" departSpeed="0.00" departDelay="0.00" arrival="224.00" arrivalLane="C3top2_0" arrivalPos="286.40" arrivalSpeed="11.40" duration="203.00" routeLength="1748.75" waitingTime="14.00" waitingCount="4" stopTime="0.00" timeLoss="47.91" rerouteNo="0" devices="tripinfo_7" vType="DEFAULT_VEHTYPE" speedFactor="0.83" vaporized=""/>
    <tripinfo id="11" depart="35.00" departLane="top2C3_0" departPos="5.10" departSpeed="0.00" departDelay="0.00" arrival="224.00" arrivalLane="D0bottom3_0" arrivalPos="286.40" arrivalSpeed="12.01" duration="189.00" routeLength="1782.59" waitingTime="9.00" waitingCount="3" stopTime="0.00" timeLoss="45.01" rerouteNo="0" devices="tripinfo_11" vType="DEFAULT_VEHTYPE" speedFactor="0.90" vaporized=""/>
    <tripinfo id="16" depart="67.00" departLane="right3D3_0" departPos="5.10" departSpeed="0.00" departDelay="0.00" arrival="227.00" arrivalLane="B3top1_0" arrivalPos="286.40" arrivalSpeed="14.36" duration="160.00" routeLength="1177.07" waitingTime="50.00" waitingCount="2" stopTime="0.00" timeLoss="78.50" rerouteNo="0" devices="tripinfo_16" vType="DEFAULT_VEHTYPE" speedFactor="1.05" vaporized=""/>
    <tripinfo id="6" depart="20.00" departLane="bottom0A0_0" departPos="5.10" departSpeed="0.00" departDelay="0.00" arrival="235.00" arrivalLane="A2left2_0" arrivalPos="286.40" arrivalSpeed="11.14" duration="215.00" routeLength="1197.89" waitingTime="85.00" waitingCount="2" stopTime="0.00" timeLoss="108.43" rerouteNo="0" devices="tripinfo_6" vType="DEFAULT_VEHTYPE" speedFactor="0.82" vaporized=""/>
    <tripinfo id="40" depart="161.00" departLane="bottom2C0_0" departPos="5.10" departSpeed="0.00" departDelay="0.00" arrival="244.00" arrivalLane="D0bottom3_0" arrivalPos="286.40" arrivalSpeed="12.39" duration="83.00" routeLength="858.56" waitingTime="2.00" waitingCount="2" stopTime="0.00" timeLoss="17.60" rerouteNo="0" devices="tripinfo_40" vType="DEFAULT_VEHTYPE" speedFactor="0.97" vaporized=""/>
    <tripinfo id="18" depart="83.00" departLane="right2D2_0" departPos="5.10" departSpeed="0.00" departDelay="0.00" arrival="247.00" arrivalLane="D1right1_0" arrivalPos="286.40" arrivalSpeed="14.58" duration="164.00" routeLength="894.86" waitingTime="87.00" waitingCount="2" stopTime="0.00" timeLoss="104.77" rerouteNo="0" devices="tripinfo_18" vType="DEFAULT_VEHTYPE" speedFactor="1.11" vaporized=""/>
    <tripinfo id="1" depart="9.00" departLane="left3A3_0" departPos="5.10" departSpeed="0.00" departDelay="0.00" arrival="251.00" arrivalLane="D2right2_0" arrivalPos="286.40" arrivalSpeed="12.06" duration="242.00" routeLength="1782.72" waitingTime="65.00" waitingCount="5" stopTime="0.00" timeLoss="103.24" rerouteNo="0" devices="tripinfo_1" vType="DEFAULT_VEHTYPE" speedFactor="0.94" vaporized=""/>
    <tripinfo id="13" depart="40.00" departLane="bottom0A0_0" departPos="5.10" departSpeed="0.00" departDelay="0.00" arrival="251.00" arrivalLane="D2right2_1" arrivalPos="286.40" arrivalSpeed="13.68" duration="211.00" routeLength="2080.28" waitingTime="37.00" waitingCount="3" stopTime="0.00" timeLoss="66.23" rerouteNo="0" devices="tripinfo_13" vType="DEFAULT_VEHTYPE" speedFactor="1.04" vaporized=""/>
    <tripinfo id="22" depart="98.00" departLane="right2D2_0" departPos="5.10" departSpeed="0.00" departDelay="0.00" arrival="270.00" arrivalLane="D3top3_0" arrivalPos="286.40" arrivalSpeed="12.74" duration="172.00" routeLength="879.60" waitingTime="86.00" waitingCount="2" stopTime="0.00" timeLoss="105.71" rerouteNo="0" devices="tripinfo_22" vType="DEFAULT_VEHTYPE" speedFactor="0.97" vaporized=""/>
    <tripinfo id="23" depart="98.00" departLane="bottom3D0_0" departPos="5.10" departSpeed="0.00" departDelay="0.00" arrival="288.00" arrivalLane="C3top2_0" arrivalPos="286.40" arrivalSpeed="14.14" duration="190.00" routeLength="1782.59" waitingTime="45.00" waitingCount="3" stopTime="0.00" timeLoss="71.81" rerouteNo="0" devices="tripinfo_23" vType="DEFAULT_VEHTYPE" speedFactor="1.10" vaporized=""/>
    <tripinfo id="52" depart="239.00" departLane="right3D3_0" departPos="5.10" departSpeed="0.00" departDelay="0.00" arrival="295.00" arrivalLane="D3top3_0" arrivalPos="286.40" arrivalSpeed="12.07" duration="56.00" routeLength="576.73" waitingTime="1.00" waitingCount="1" stopTime="0.00" timeLoss="10.75" rerouteNo="0" devices="tripinfo_52" vType="DEFAULT_VEHTYPE" speedFactor="0.93" vaporized=""/>
    <tripinfo id="2" depart="10.00" departLane="top3D3_0" departPos="5.10" departSpeed="0.00" departDelay="0.00" arrival="298.00" arrivalLane="A0left0_0" arrivalPos="286.40" arrivalSpeed="14.16" duration="288.00" routeLength="2380.45" waitingTime="90.00" waitingCount="4" stopTime="0.00" timeLoss="129.74" rerouteNo="0" devices="tripinfo_2" vType="DEFAULT_VEHTYPE" speedFactor="1.09" vaporized=""/>
    <tripinfo id="5" depart="18.00" departLane="right0D0_0" departPos="5.10" departSpeed="0.00" departDelay="0.00" arrival="298.00" arrivalLane="A2left2_0" arrivalPos="286.40" arrivalSpeed="13.33" duration="280.00" routeLength="2082.76" waitingTime="91.00" waitingCount="4" stopTime="0.00" timeLoss="135.45" rerouteNo="0" devices="tripinfo_5" vType="DEFAULT_VEHTYPE" speedFactor="1.05" vaporized=""/>
    <tripinfo id="50" depart="236.00" departLane="top3D3_0" departPos="5.10" departSpeed="0.00" departDelay="0.00" arrival="307.00" arrivalLane="D2right2_0" arrivalPos="286.40" arrivalSpeed="14.08" duration="71.00" routeLength="897.72" waitingTime="0.00" waitingCount="0" stopTime="0.00" timeLoss="9.77" rerouteNo="0" devices="tripinfo_50" vType="DEFAULT_VEHTYPE" speedFactor="1.08" vaporized=""/>
    <tripinfo id="41" depart="174.00" departLane="top3D3_0" departPos="5.10" departSpeed="0.00" departDelay="0.00" arrival="310.00" arrivalLane="D3right3_0" arrivalPos="286.40" arrivalSpeed="13.46" duration="136.00" routeLength="597.55" waitingTime="81.00" waitingCount="1" stopTime="0.00" timeLoss="91.32" rerouteNo="0" devices="tripinfo_41" vType="DEFAULT_VEHTYPE" speedFactor="0.99" vaporized=""/>
    <tripinfo id="15" depart="63.00" departLane="bottom3D0_0" departPos="5.10" departSpeed="0.00" departDelay="0.00" arrival="317.00" arrivalLane="A2left2_0" arrivalPos="286.40" arrivalSpeed="14.83" duration="254.00" routeLength="2095.69" waitingTime="74.00" waitingCount="5" stopTime="0.00" timeLoss="116.13" rerouteNo="0" devices="tripinfo_15" vType="DEFAULT_VEHTYPE" speedFactor="1.10" vaporized=""/>
    <tripinfo id="25" depart="105.00" departLane="left3A3_0" departPos="5.10" departSpeed="0.00" departDelay="0.00" arrival="321.00" arrivalLane="D2right2_0" arrivalPos="286.40" arrivalSpeed="11.81" duration="216.00" routeLength="1782.72" waitingTime="51.00" waitingCount="3" stopTime="0.00" timeLoss="74.95" rerouteNo="0" devices="tripinfo_25" vType="DEFAULT_VEHTYPE" speedFactor="0.92" vaporized=""/>
    <tripinfo id="35" depart="138.00" departLane="left3A3_0" departPos="5.10" departSpeed="0.00" departDelay="0.00" arrival="322.00" arrivalLane="A3left3_0" arrivalPos="286.40" arrivalSpeed="12.15" duration="184.00" routeLength="1748.75" waitingTime="12.00" waitingCount="4" stopTime="0.00" timeLoss="43.20" rerouteNo="0" devices="tripinfo_35" vType="DEFAULT_VEHTYPE" speedFactor="0.91" vaporized=""/>
    <tripinfo id="21" depart="97.00" departLane="top0A3_0" departPos="5.10" departSpeed="0.00" departDelay="0.00" arrival="327.00" arrivalLane="D1right1_0" arrivalPos="286.40" arrivalSpeed="15.00" duration="230.00" routeLength="2095.69" waitingTime="55.00" waitingCount="4" stopTime="0.00" timeLoss="91.51" rerouteNo="0" devices="tripinfo_21" vType="DEFAULT_VEHTYPE" speedFactor="1.10" vaporized=""/>
    <tripinfo id="43" depart="186.00" departLane="bottom0A0_0" departPos="5.10" departSpeed="0.00" departDelay="0.00" arrival="327.00" arrivalLane="D0bottom3_0" arrivalPos="286.40" arrivalSpeed="11.88" duration="141.00" routeLength="1461.60" waitingTime="3.00" waitingCount="2" stopTime="0.00" timeLoss="24.46" rerouteNo="0" devices="tripinfo_43" vType="DEFAULT_VEHTYPE" speedFactor="0.92" vaporized=""/>
    <tripinfo id="28" depart="122.00" departLane="top0A3_0" departPos="5.10" departSpeed="0.00" departDelay="0.00" arrival="329.00" arrivalLane="D1right1_0" arrivalPos="286.40" arrivalSpeed="15.44" duration="207.00" routeLength="2095.69" waitingTime="30.00" waitingCount="4" stopTime="0.00" timeLoss="71.44" rerouteNo="0" devices="tripinfo_28" vType="DEFAULT_VEHTYPE" speedFactor="1.12" vaporized=""/>
    <tripinfo id="42" depart="184.00" departLane="top0A3_0" departPos="5.10" departSpeed="0.00" departDelay="0.00" arrival="359.00" arrivalLane="C3top2_0" arrivalPos="286.40" arrivalSpeed="12.71" duration="175.00" routeLength="1197.66" waitingTime="69.00" waitingCount="2" stopTime="0.00" timeLoss="87.29" rerouteNo="0" devices="tripinfo_42" vType="DEFAULT_VEHTYPE" speedFactor="0.99" vaporized=""/>
    <tripinfo id="49" depart="229.00" departLane="top2C3_0" departPos="5.10" departSpeed="0.00" departDelay="0.00" arrival="372.00" arrivalLane="A3left3_0" arrivalPos="286.40" arrivalSpeed="11.87" duration="143.00" routeLength="1179.77" waitingTime="24.00" waitingCount="3" stopTime="0.00" timeLoss="48.40" rerouteNo="0" devices="tripinfo_49" vType="DEFAULT_VEHTYPE" speedFactor="0.91" vaporized=""/>
    <tripinfo id="44" depart="193.00" departLane="left0A0_0" departPos="5.10" departSpeed="0.00" departDelay="0.00" arrival="374.00" arrivalLane="D0bottom3_0" arrivalPos="286.40" arrivalSpeed="14.25" duration="181.00" routeLength="1477.24" waitingTime="49.00" waitingCount="4" stopTime="0.00" timeLoss="82.10" rerouteNo="0" devices="tripinfo_44" vType="DEFAULT_VEHTYPE" speedFactor="1.09" vaporized=""/>
    <tripinfo id="51" depart="238.00" departLane="left1A1_0" departPos="5.10" departSpeed="0.00" departDelay="0.00" arrival="376.00" arrivalLane="B0bottom1_0" arrivalPos="286.40" arrivalSpeed="9.84" duration="138.00" routeLength="1179.77" waitingTime="7.00" waitingCount="2" stopTime="0.00" timeLoss="25.73" rerouteNo="0" devices="tripinfo_51" vType="DEFAULT_VEHTYPE" speedFactor="0.77" vaporized=""/>
    <tripinfo id="56" depart="261.00" departLane="top0A3_0" departPos="5.10" departSpeed="0.00" departDelay="0.00" arrival="377.00" arrivalLane="A2left2_0" arrivalPos="286.40" arrivalSpeed="12.78" duration="116.00" routeLength="876.90" waitingTime="35.00" waitingCount="2" stopTime="0.00" timeLoss="50.97" rerouteNo="0" devices="tripinfo_56" vType="DEFAULT_VEHTYPE" speedFactor="0.98" vaporized=""/>
    <tripinfo id="20" depart="90.00" departLane="right3D3_0" departPos="5.10" departSpeed="0.00" departDelay="0.00" arrival="379.00" arrivalLane="D0bottom3_0" arrivalPos="286.40" arrivalSpeed="13.59" duration="289.00" routeLength="1495.35" waitingTime="153.00" waitingCount="4" stopTime="0.00" timeLoss="184.47" rerouteNo="0" devices="tripinfo_20" vType="DEFAULT_VEHTYPE" speedFactor="1.04" vaporized=""/>
    <tripinfo id="26" depart="108.00" departLane="top2C3_0" departPos="5.10" departSpeed="0.00" departDelay="0.00" arrival="383.00" arrivalLane="D0bottom3_0" arrivalPos="286.40" arrivalSpeed="11.59" duration="275.00" routeLength="1782.59" waitingTime="102.00" waitingCount="3" stopTime="0.00" timeLoss="134.58" rerouteNo="0" devices="tripinfo_26" vType="DEFAULT_VEHTYPE" speedFactor="0.92" vaporized=""/>
    <tripinfo id="24" depart="102.00" departLane="right0D0_0" departPos="5.10" departSpeed="0.00" departDelay="0.00" arrival="390.00" arrivalLane="A3top0_0" arrivalPos="286.40" arrivalSpeed="12.99" duration="288.00" routeLength="2380.45" waitingTime="62.00" waitingCount="7" stopTime="0.00" timeLoss="111.01" rerouteNo="0" devices="tripinfo_24" vType="DEFAULT_VEHTYPE" speedFactor="0.98" vaporized=""/>
    <tripinfo id="30" depart="128.00" departLane="left3A3_0" departPos="5.10" departSpeed="0.00" departDelay="0.00" arrival="397.00" arrivalLane="A0bottom0_0" arrivalPos="286.40" arrivalSpeed="15.04" duration="269.00" routeLength="1479.94" waitingTime="142.00" waitingCount="4" stopTime="0.00" timeLoss="173.58" rerouteNo="0" devices="tripinfo_30" vType="DEFAULT_VEHTYPE" speedFactor="1.13" vaporized=""/>
    <tripinfo id="45" depart="193.00" departLane="left3A3_0" departPos="5.10" departSpeed="0.00" departDelay="0.00" arrival="400.00" arrivalLane="A0bottom0_0" arrivalPos="286.40" arrivalSpeed="14.18" duration="207.00" routeLength="1479.94" waitingTime="72.00" waitingCount="4" stopTime="0.00" timeLoss="103.00" rerouteNo="0" devices="tripinfo_45" vType="DEFAULT_VEHTYPE" speedFactor="1.04" vaporized=""/>
    <tripinfo id="27" depart="119.00" departLane="right2D2_0" departPos="5.10" departSpeed="0.00" departDelay="0.00" arrival="402.00" arrivalLane="A1left1_0" arrivalPos="286.40" arrivalSpeed="12.53" duration="283.00" routeLength="1782.59" waitingTime="104.00" waitingCount="4" stopTime="0.00" timeLoss="140.41" rerouteNo="0" devices="tripinfo_27" vType="DEFAULT_VEHTYPE" speedFactor="0.91" vaporized=""/>
    <tripinfo id="48" depart="214.00" departLane="left1A1_0" departPos="5.10" departSpeed="0.00" departDelay="0.00" arrival="420.00" arrivalLane="D0bottom3_0" arrivalPos="286.40" arrivalSpeed="13.01" duration="206.00" routeLength="1780.11" waitingTime="45.00" waitingCount="3" stopTime="0.00" timeLoss="72.27" rerouteNo="0" devices="tripinfo_48" vType="DEFAULT_VEHTYPE" speedFactor="0.97" vaporized=""/>
    <tripinfo id="60" depart="292.00" departLane="top1B3_0" departPos="5.10" departSpeed="0.00" departDelay="0.00" arrival="425.00" arrivalLane="A2left2_0" arrivalPos="286.40" arrivalSpeed="12.19" duration="133.00" routeLength="1179.77" waitingTime="25.00" waitingCount="2" stopTime="0.00" timeLoss="43.27" rerouteNo="0" devices="tripinfo_60" vType="DEFAULT_VEHTYPE" speedFactor="0.96" vaporized=""/>
    <tripinfo id="33" depart="136.00" departLane="top1B3_0" departPos="5.10" departSpeed="0.00" departDelay="0.00" arrival="426.00" arrivalLane="B0bottom1_0" arrivalPos="286.40" arrivalSpeed="15.76" duration="290.00" routeLength="1495.58" waitingTime="173.00" waitingCount="3" stopTime="0.00" timeLoss="198.43" rerouteNo="0" devices="tripinfo_33" vType="DEFAULT_VEHTYPE" speedFactor="1.18" vaporized=""/>
    <tripinfo id="36" depart="138.00" departLane="left1A1_0" departPos="5.10" departSpeed="0.00" departDelay="0.00" arrival="428.00" arrivalLane="D3top3_0" arrivalPos="286.40" arrivalSpeed="14.34" duration="290.00" routeLength="2095.69" waitingTime="109.00" waitingCount="5" stopTime="0.00" timeLoss="145.04" rerouteNo="0" devices="tripinfo_36" vType="DEFAULT_VEHTYPE" speedFactor="1.05" vaporized=""/>
    <tripinfo id="12" depart="37.00" departLane="right3D3_0" departPos="5.10" departSpeed="0.00" departDelay="0.00" arrival="432.00" arrivalLane="B0bottom1_0" arrivalPos="286.40" arrivalSpeed="13.18" duration="395.00" routeLength="2095.69" waitingTime="197.00" waitingCount="5" stopTime="0.00" timeLoss="238.57" rerouteNo="0" devices="tripinfo_12" vType="DEFAULT_VEHTYPE" speedFactor="0.97" vaporized=""/>
    <tripinfo id="72" depart="352.00" departLane="left2A2_0" departPos="5.10" departSpeed="0.00" departDelay="0.00" arrival="432.00" arrivalLane="A1left1_0" arrivalPos="286.40" arrivalSpeed="14.76" duration="80.00" routeLength="858.56" waitingTime="2.00" waitingCount="2" stopTime="0.00" timeLoss="20.77" rerouteNo="0" devices="tripinfo_72" vType="DEFAULT_VEHTYPE" speedFactor="1.06" vaporized=""/>
    <tripinfo id="81" depart="389.00" departLane="left0A0_0" departPos="5.10" departSpeed="0.00" departDelay="0.00" arrival="441.00" arrivalLane="A0bottom0_0" arrivalPos="286.40" arrivalSpeed="13.49" duration="52.00" routeLength="576.73" waitingTime="1.00" waitingCount="1" stopTime="0.00" timeLoss="11.50" rerouteNo="0" devices="tripinfo_81" vType="DEFAULT_VEHTYPE" speedFactor="1.06" vaporized=""/>
    <tripinfo id="31" depart="135.00" departLane="bottom3D0_0" departPos="5.10" departSpeed="0.00" departDelay="0.00" arrival="448.00" arrivalLane="B3top1_0" arrivalPos="286.40" arrivalSpeed="14.82" duration="313.00" routeLength="2080.05" waitingTime="138.00" waitingCount="5" stopTime="0.00" timeLoss="177.44" rerouteNo="0" devices="tripinfo_31" vType="DEFAULT_VEHTYPE" speedFactor="1.12" vaporized=""/>
    <tripinfo id="79" depart="377.00" departLane="bottom3D0_0" departPos="5.10" departSpeed="0.00" departDelay="0.00" arrival="453.00" arrivalLane="D1right1_0" arrivalPos="286.40" arrivalSpeed="13.41" duration="76.00" routeLength="876.90" waitingTime="1.00" waitingCount="1" stopTime="0.00" timeLoss="11.69" rerouteNo="0" devices="tripinfo_79" vType="DEFAULT_VEHTYPE" speedFactor="1.00" vaporized=""/>
    <tripinfo id="47" depart="207.00" departLane="bottom3D0_0" departPos="5.10" departSpeed="0.00" departDelay="0.00" arrival="459.00" arrivalLane="A3top0_1" arrivalPos="286.40" arrivalSpeed="14.62" duration="252.00" routeLength="2380.22" waitingTime="55.00" waitingCount="5" stopTime="0.00" timeLoss="97.59" rerouteNo="0" devices="tripinfo_47" vType="DEFAULT_VEHTYPE" speedFactor="1.12" vaporized=""/>
    <tripinfo id="29" depart="122.00" departLane="right2D2_0" departPos="5.10" departSpeed="0.00" departDelay="0.00" arrival="463.00" arrivalLane="A3top0_0" arrivalPos="286.40" arrivalSpeed="11.79" duration="341.00" routeLength="1780.11" waitingTime="152.00" waitingCount="5" stopTime="0.00" timeLoss="191.52" rerouteNo="0" devices="tripinfo_29" vType="DEFAULT_VEHTYPE" speedFactor="0.87" vaporized=""/>
    <tripinfo id="38" depart="149.00" departLane="right0D0_0" departPos="5.10" departSpeed="0.00" departDelay="0.00" arrival="466.00" arrivalLane="A3left3_0" arrivalPos="286.40" arrivalSpeed="10.75" duration="317.00" routeLength="2382.93" waitingTime="58.00" waitingCount="5" stopTime="0.00" timeLoss="98.13" rerouteNo="0" devices="tripinfo_38" vType="DEFAULT_VEHTYPE" speedFactor="0.79" vaporized=""/>
    <tripinfo id="32" depart="135.00" departLane="right2D2_0" departPos="5.10" departSpeed="0.00" departDelay="0.00" arrival="470.00" arrivalLane="A0bottom0_0" arrivalPos="286.40" arrivalSpeed="13.83" duration="335.00" routeLength="2095.69" waitingTime="140.00" waitingCount="5" stopTime="0.00" timeLoss="190.46" rerouteNo="0" devices="tripinfo_32" vType="DEFAULT_VEHTYPE" speedFactor="1.05" vaporized=""/>
    <tripinfo id="57" depart="264.00" departLane="top0A3_0" departPos="5.10" departSpeed="0.00" departDelay="1.00" arrival="471.00" arrivalLane="C3top2_0" arrivalPos="286.40" arrivalSpeed="12.62" duration="207.00" routeLength="1197.66" waitingTime="91.00" waitingCount="3" stopTime="0.00" timeLoss="114.59" rerouteNo="0" devices="tripinfo_57" vType="DEFAULT_VEHTYPE" speedFactor="0.95" vaporized=""/>
    <tripinfo id="86" depart="427.00" departLane="left0A0_0" departPos="5.10" departSpeed="0.00" departDelay="0.00" arrival="477.00" arrivalLane="A0bottom0_0" arrivalPos="286.40" arrivalSpeed="14.59" duration="50.00" routeLength="576.73" waitingTime="1.00" waitingCount="1" stopTime="0.00" timeLoss="11.95" rerouteNo="0" devices="tripinfo_86" vType="DEFAULT_VEHTYPE" speedFactor="1.11" vaporized=""/>
    <tripinfo id="68" depart="337.00" departLane="bottom1B0_0" departPos="5.10" departSpeed="0.00" departDelay="0.00" arrival="482.00" arrivalLane="D0bottom3_0" arrivalPos="286.40" arrivalSpeed="11.78" duration="145.00" routeLength="1161.43" waitingTime="32.00" waitingCount="2" stopTime="0.00" timeLoss="49.22" rerouteNo="0" devices="tripinfo_68" vType="DEFAULT_VEHTYPE" speedFactor="0.88" vaporized=""/>
    <tripinfo id="55" depart="253.00" departLane="top1B3_0" departPos="5.10" departSpeed="0.00" departDelay="0.00" arrival="489.00" arrivalLane="B3top1_0" arrivalPos="286.40" arrivalSpeed="14.53" duration="236.00" routeLength="1748.75" waitingTime="80.00" waitingCount="3" stopTime="0.00" timeLoss="113.35" rerouteNo="0" devices="tripinfo_55" vType="DEFAULT_VEHTYPE" speedFactor="1.05" vaporized=""/>
    <tripinfo id="59" depart="279.00" departLane="right1D1_0" departPos="5.10" departSpeed="0.00" departDelay="0.00" arrival="490.00" arrivalLane="A0left0_0" arrivalPos="286.40" arrivalSpeed="12.82" duration="211.00" routeLength="1782.59" waitingTime="48.00" waitingCount="2" stopTime="0.00" timeLoss="75.93" rerouteNo="0" devices="tripinfo_59" vType="DEFAULT_VEHTYPE" speedFactor="0.96" vaporized=""/>
    <tripinfo id="62" depart="303.00" departLane="left1A1_0" departPos="5.10" departSpeed="0.00" departDelay="0.00" arrival="496.00" arrivalLane="A1left1_0" arrivalPos="286.40" arrivalSpeed="14.91" duration="193.00" routeLength="1748.75" waitingTime="48.00" waitingCount="4" stopTime="0.00" timeLoss="79.54" rerouteNo="0" devices="tripinfo_62" vType="DEFAULT_VEHTYPE" speedFactor="1.13" vaporized=""/>
    <tripinfo id="89" depart="431.00" departLane="left1A1_0" departPos="5.10" departSpeed="0.00" departDelay="0.00" arrival="499.00" arrivalLane="A0bottom0_0" arrivalPos="286.40" arrivalSpeed="16.23" duration="68.00" routeLength="879.60" waitingTime="1.00" waitingCount="1" stopTime="0.00" timeLoss="14.68" rerouteNo="0" devices="tripinfo_89" vType="DEFAULT_VEHTYPE" speedFactor="1.21" vaporized=""/>
    <tripinfo id="65" depart="314.00" departLane="bottom2C0_0" departPos="5.10" departSpeed="0.00" departDelay="0.00" arrival="504.00" arrivalLane="D2right2_0" arrivalPos="286.40" arrivalSpeed="11.28" duration="190.00" routeLength="1479.94" waitingTime="33.00" waitingCount="4" stopTime="0.00" timeLoss="58.85" rerouteNo="0" devices="tripinfo_65" vType="DEFAULT_VEHTYPE" speedFactor="0.82" vaporized=""/>
    <tripinfo id="39" depart="156.00" departLane="top0A3_0" departPos="5.10" departSpeed="0.00" departDelay="0.00" arrival="511.00" arrivalLane="D1right1_1" arrivalPos="286.40" arrivalSpeed="12.79" duration="355.00" routeLength="2095.69" waitingTime="156.00" waitingCount="5" stopTime="0.00" timeLoss="202.53" rerouteNo="0" devices="tripinfo_39" vType="DEFAULT_VEHTYPE" speedFactor="1.00" vaporized=""/>
    <tripinfo id="53" depart="243.00" departLane="left0A0_0" departPos="5.10" departSpeed="0.00" departDelay="0.00" arrival="511.00" arrivalLane="D1right1_0" arrivalPos="286.40" arrivalSpeed="11.77" duration="268.00" routeLength="1782.59" waitingTime="95.00" waitingCount="3" stopTime="0.00" timeLoss="124.76" rerouteNo="0" devices="tripinfo_53" vType="DEFAULT_VEHTYPE" speedFactor="0.91" vaporized=""/>
    <tripinfo id="58" depart="279.00" departLane="top3D3_0" departPos="5.10" departSpeed="0.00" departDelay="0.00" arrival="520.00" arrivalLane="D3top3_0" arrivalPos="286.40" arrivalSpeed="12.68" duration="241.00" routeLength="1748.75" waitingTime="84.00" waitingCount="3" stopTime="0.00" timeLoss="110.78" rerouteNo="0" devices="tripinfo_58" vType="DEFAULT_VEHTYPE" speedFactor="0.98" vaporized=""/>
    <tripinfo id="76" depart="372.00" departLane="bottom3D0_0" departPos="5.10" departSpeed="0.00" departDelay="0.00" arrival="530.00" arrivalLane="B0bottom1_0" arrivalPos="286.40" arrivalSpeed="13.52" duration="158.00" routeLength="1197.66" waitingTime="51.00" waitingCount="2" stopTime="0.00" timeLoss="69.64" rerouteNo="0" devices="tripinfo_76" vType="DEFAULT_VEHTYPE" speedFactor="1.00" vaporized=""/>
    <tripinfo id="98" depart="474.00" departLane="right3D3_0" departPos="5.10" departSpeed="0.00" departDelay="0.00" arrival="530.00" arrivalLane="D3top3_0" arrivalPos="286.40" arrivalSpeed="11.06" duration="56.00" routeLength="576.73" waitingTime="0.00" waitingCount="0" stopTime="0.00" timeLoss="7.86" rerouteNo="0" devices="tripinfo_98" vType="DEFAULT_VEHTYPE" speedFactor="0.88" vaporized=""/>
    <tripinfo id="83" depart="396.00" departLane="left2A2_0" departPos="5.10" departSpeed="0.00" departDelay="0.00" arrival="532.00" arrivalLane="A3left3_0" arrivalPos="286.40" arrivalSpeed="10.99" duration="136.00" routeLength="894.86" waitingTime="45.00" waitingCount="2" stopTime="0.00" timeLoss="61.82" rerouteNo="0" devices="tripinfo_83" vType="DEFAULT_VEHTYPE" speedFactor="0.88" vaporized=""/>
    <tripinfo id="66" depart="325.00" departLane="right3D3_0" departPos="5.10" departSpeed="0.00" departDelay="0.00" arrival="537.00" arrivalLane="C0bottom2_0" arrivalPos="286.40" arrivalSpeed="14.90" duration="212.00" routeLength="1795.52" waitingTime="67.00" waitingCount="3" stopTime="0.00" timeLoss="98.32" rerouteNo="0" devices="tripinfo_66" vType="DEFAULT_VEHTYPE" speedFactor="1.15" vaporized=""/>
    <tripinfo id="61" depart="294.00" departLane="top3D3_0" departPos="5.10" departSpeed="0.00" departDelay="0.00" arrival="552.00" arrivalLane="D0bottom3_0" arrivalPos="286.40" arrivalSpeed="12.09" duration="258.00" routeLength="1495.58" waitingTime="106.00" waitingCount="3" stopTime="0.00" timeLoss="135.08" rerouteNo="0" devices="tripinfo_61" vType="DEFAULT_VEHTYPE" speedFactor="0.88" vaporized=""/>
    <tripinfo id="67" depart="330.00" departLane="top1B3_0" departPos="5.10" departSpeed="0.00" departDelay="0.00" arrival="566.00" arrivalLane="B0bottom1_0" arrivalPos="286.40" arrivalSpeed="15.66" duration="236.00" routeLength="1495.58" waitingTime="115.00" waitingCount="3" stopTime="0.00" timeLoss="142.85" rerouteNo="0" devices="tripinfo_67" vType="DEFAULT_VEHTYPE" speedFactor="1.16" vaporized=""/>