<?xml version="1.0" encoding="UTF-8"?>

<!-- generated on 12/10/21 11:35:57 by Eclipse SUMO sumo Version 1.7.0
<configuration xmlns:xsi="http://www.w3.org/2001/XMLSchema-instance" xsi:noNamespaceSchemaLocation="http://sumo.dlr.de/xsd/sumoConfiguration.xsd">

    <input>
        <net-file value="C:\Users\longs\Desktop\RESCO-main\environments\grid4x4\grid4x4.net.xml"/>
        <route-files value="C:\Users\longs\Desktop\RESCO-main\environments\grid4x4\grid4x4_33.rou.xml"/>
    </input>

    <output>
        <tripinfo-output value="C:\Users\longs\Desktop\RESCO-main\logs\IDQN-tr1-grid4x4-0-drqlong-delaydiff_pressure\tripinfo_33.xml"/>
        <tripinfo-output.write-unfinished value="true"/>
    </output>

    <processing>
        <time-to-teleport value="-1"/>
    </processing>

    <report>
        <no-warnings value="true"/>
        <no-step-log value="true"/>
    </report>

    <traci_server>
        <remote-port value="53978"/>
    </traci_server>

    <random_number>
        <random value="true"/>
    </random_number>

</configuration>
-->

<tripinfos xmlns:xsi="http://www.w3.org/2001/XMLSchema-instance" xsi:noNamespaceSchemaLocation="http://sumo.dlr.de/xsd/tripinfo_file.xsd">
    <tripinfo id="0" depart="4.00" departLane="top2C3_0" departPos="5.10" departSpeed="0.00" departDelay="0.00" arrival="76.00" arrivalLane="B3top1_0" arrivalPos="286.40" arrivalSpeed="14.56" duration="72.00" routeLength="858.56" waitingTime="0.00" waitingCount="0" stopTime="0.00" timeLoss="15.38" rerouteNo="0" devices="tripinfo_0" vType="DEFAULT_VEHTYPE" speedFactor="1.12" vaporized=""/>
    <tripinfo id="3" depart="17.00" departLane="top0A3_0" departPos="5.10" departSpeed="0.00" departDelay="0.00" arrival="91.00" arrivalLane="A2left2_0" arrivalPos="286.40" arrivalSpeed="14.25" duration="74.00" routeLength="876.90" waitingTime="1.00" waitingCount="1" stopTime="0.00" timeLoss="13.32" rerouteNo="0" devices="tripinfo_3" vType="DEFAULT_VEHTYPE" speedFactor="1.06" vaporized=""/>
    <tripinfo id="9" depart="40.00" departLane="left2A2_0" departPos="5.10" departSpeed="0.00" departDelay="0.00" arrival="133.00" arrivalLane="A1left1_0" arrivalPos="286.40" arrivalSpeed="10.81" duration="93.00" routeLength="858.56" waitingTime="1.00" waitingCount="1" stopTime="0.00" timeLoss="13.28" rerouteNo="0" devices="tripinfo_9" vType="DEFAULT_VEHTYPE" speedFactor="0.79" vaporized=""/>
    <tripinfo id="1" depart="12.00" departLane="bottom0A0_0" departPos="5.10" departSpeed="0.00" departDelay="0.00" arrival="158.00" arrivalLane="D0right0_0" arrivalPos="286.40" arrivalSpeed="11.75" duration="146.00" routeLength="1479.94" waitingTime="3.00" waitingCount="1" stopTime="0.00" timeLoss="20.19" rerouteNo="0" devices="tripinfo_1" vType="DEFAULT_VEHTYPE" speedFactor="0.85" vaporized=""/>
    <tripinfo id="11" depart="51.00" departLane="top1B3_0" departPos="5.10" departSpeed="0.00" departDelay="0.00" arrival="196.00" arrivalLane="D3top3_0" arrivalPos="286.40" arrivalSpeed="12.07" duration="145.00" routeLength="1197.66" waitingTime="33.00" waitingCount="2" stopTime="0.00" timeLoss="52.65" rerouteNo="0" devices="tripinfo_11" vType="DEFAULT_VEHTYPE" speedFactor="0.95" vaporized=""/>
    <tripinfo id="18" depart="85.00" departLane="bottom0A0_0" departPos="5.10" departSpeed="0.00" departDelay="0.00" arrival="200.00" arrivalLane="C0bottom2_0" arrivalPos="286.40" arrivalSpeed="11.93" duration="115.00" routeLength="1161.43" waitingTime="7.00" waitingCount="2" stopTime="0.00" timeLoss="25.72" rerouteNo="0" devices="tripinfo_18" vType="DEFAULT_VEHTYPE" speedFactor="0.95" vaporized=""/>
    <tripinfo id="19" depart="86.00" departLane="top2C3_0" departPos="5.10" departSpeed="0.00" departDelay="0.00" arrival="219.00" arrivalLane="D2right2_0" arrivalPos="286.40" arrivalSpeed="13.98" duration="133.00" routeLength="1195.18" waitingTime="32.00" waitingCount="2" stopTime="0.00" timeLoss="51.21" rerouteNo="0" devices="tripinfo_19" vType="DEFAULT_VEHTYPE" speedFactor="1.06" vaporized=""/>
    <tripinfo id="16" depart="80.00" departLane="top0A3_0" departPos="5.10" departSpeed="0.00" departDelay="0.00" arrival="222.00" arrivalLane="A0left0_0" arrivalPos="286.40" arrivalSpeed="14.77" duration="142.00" routeLength="1477.24" waitingTime="22.00" waitingCount="3" stopTime="0.00" timeLoss="47.66" rerouteNo="0" devices="tripinfo_16" vType="DEFAULT_VEHTYPE" speedFactor="1.13" vaporized=""/>
    <tripinfo id="5" depart="30.00" departLane="bottom2C0_0" departPos="5.10" departSpeed="0.00" departDelay="0.00" arrival="247.00" arrivalLane="C3top2_0" arrivalPos="286.40" arrivalSpeed="15.19" duration="217.00" routeLength="1495.58" waitingTime="93.00" waitingCount="3" stopTime="0.00" timeLoss="119.92" rerouteNo="0" devices="tripinfo_5" vType="DEFAULT_VEHTYPE" speedFactor="1.12" vaporized=""/>
    <tripinfo id="14" depart="71.00" departLane="bottom0A0_0" departPos="5.10" departSpeed="0.00" departDelay="0.00" arrival="247.00" arrivalLane="D1right1_0" arrivalPos="286.40" arrivalSpeed="14.89" duration="176.00" routeLength="1780.11" waitingTime="28.00" waitingCount="4" stopTime="0.00" timeLoss="60.98" rerouteNo="0" devices="tripinfo_14" vType="DEFAULT_VEHTYPE" speedFactor="1.12" vaporized=""/>
    <tripinfo id="25" depart="120.00" departLane="left1A1_0" departPos="5.10" departSpeed="0.00" departDelay="0.00" arrival="252.00" arrivalLane="D1right1_0" arrivalPos="286.40" arrivalSpeed="13.32" duration="132.00" routeLength="1495.58" waitingTime="10.00" waitingCount="2" stopTime="0.00" timeLoss="28.30" rerouteNo="0" devices="tripinfo_25" vType="DEFAULT_VEHTYPE" speedFactor="1.04" vaporized=""/>
    <tripinfo id="2" depart="13.00" departLane="bottom3D0_0" departPos="5.10" departSpeed="0.00" departDelay="0.00" arrival="258.00" arrivalLane="A1left1_0" arrivalPos="286.40" arrivalSpeed="13.91" duration="245.00" routeLength="1795.52" waitingTime="87.00" waitingCount="5" stopTime="0.00" timeLoss="124.35" rerouteNo="0" devices="tripinfo_2" vType="DEFAULT_VEHTYPE" speedFactor="1.08" vaporized=""/>
    <tripinfo id="7" depart="37.00" departLane="bottom3D0_0" departPos="5.10" departSpeed="0.00" departDelay="0.00" arrival="263.00" arrivalLane="A1left1_0" arrivalPos="286.40" arrivalSpeed="12.13" duration="226.00" routeLength="1795.52" waitingTime="50.00" waitingCount="4" stopTime="0.00" timeLoss="85.37" rerouteNo="0" devices="tripinfo_7" vType="DEFAULT_VEHTYPE" speedFactor="0.93" vaporized=""/>
    <tripinfo id="22" depart="105.00" departLane="left0A0_0" departPos="5.10" departSpeed="0.00" departDelay="0.00" arrival="269.00" arrivalLane="D0right0_0" arrivalPos="286.40" arrivalSpeed="14.20" duration="164.00" routeLength="1495.58" waitingTime="28.00" waitingCount="4" stopTime="0.00" timeLoss="58.07" rerouteNo="0" devices="tripinfo_22" vType="DEFAULT_VEHTYPE" speedFactor="1.02" vaporized=""/>
    <tripinfo id="8" depart="40.00" departLane="right2D2_0" departPos="5.10" departSpeed="0.00" departDelay="0.00" arrival="272.00" arrivalLane="B3top1_0" arrivalPos="286.40" arrivalSpeed="11.11" duration="232.00" routeLength="1479.94" waitingTime="81.00" waitingCount="3" stopTime="0.00" timeLoss="110.86" rerouteNo="0" devices="tripinfo_8" vType="DEFAULT_VEHTYPE" speedFactor="0.89" vaporized=""/>
    <tripinfo id="32" depart="180.00" departLane="right1D1_0" departPos="5.10" departSpeed="0.00" departDelay="0.00" arrival="288.00" arrivalLane="D3right3_0" arrivalPos="286.40" arrivalSpeed="14.77" duration="108.00" routeLength="1161.43" waitingTime="11.00" waitingCount="2" stopTime="0.00" timeLoss="33.49" rerouteNo="0" devices="tripinfo_32" vType="DEFAULT_VEHTYPE" speedFactor="1.14" vaporized=""/>
    <tripinfo id="10" depart="45.00" departLane="left0A0_0" departPos="5.10" departSpeed="0.00" departDelay="0.00" arrival="290.00" arrivalLane="D2right2_0" arrivalPos="286.40" arrivalSpeed="13.41" duration="245.00" routeLength="2080.05" waitingTime="55.00" waitingCount="5" stopTime="0.00" timeLoss="91.18" rerouteNo="0" devices="tripinfo_10" vType="DEFAULT_VEHTYPE" speedFactor="0.98" vaporized=""/>
    <tripinfo id="30" depart="162.00" departLane="left1A1_0" departPos="5.10" departSpeed="0.00" departDelay="0.00" arrival="299.00" arrivalLane="B0bottom1_1" arrivalPos="286.40" arrivalSpeed="15.71" duration="137.00" routeLength="1179.77" waitingTime="35.00" waitingCount="2" stopTime="0.00" timeLoss="61.83" rerouteNo="0" devices="tripinfo_30" vType="DEFAULT_VEHTYPE" speedFactor="1.15" vaporized=""/>
    <tripinfo id="12" depart="57.00" departLane="right2D2_0" departPos="5.10" departSpeed="0.00" departDelay="0.00" arrival="301.00" arrivalLane="B0bottom1_0" arrivalPos="286.40" arrivalSpeed="12.04" duration="244.00" routeLength="1795.52" waitingTime="71.00" waitingCount="3" stopTime="0.00" timeLoss="104.51" rerouteNo="0" devices="tripinfo_12" vType="DEFAULT_VEHTYPE" speedFactor="0.93" vaporized=""/>
    <tripinfo id="4" depart="30.00" departLane="right2D2_0" departPos="5.10" departSpeed="0.00" departDelay="0.00" arrival="302.00" arrivalLane="A3left3_0" arrivalPos="286.40" arrivalSpeed="11.01" duration="272.00" routeLength="1782.72" waitingTime="89.00" waitingCount="5" stopTime="0.00" timeLoss="123.05" rerouteNo="0" devices="tripinfo_4" vType="DEFAULT_VEHTYPE" speedFactor="0.87" vaporized=""/>
    <tripinfo id="21" depart="95.00" departLane="top3D3_0" departPos="5.10" departSpeed="0.00" departDelay="0.00" arrival="302.00" arrivalLane="A3left3_1" arrivalPos="286.40" arrivalSpeed="12.50" duration="207.00" routeLength="1479.94" waitingTime="66.00" waitingCount="2" stopTime="0.00" timeLoss="97.28" rerouteNo="0" devices="tripinfo_21" vType="DEFAULT_VEHTYPE" speedFactor="0.98" vaporized=""/>
    <tripinfo id="48" depart="260.00" departLane="left0A0_0" departPos="5.10" departSpeed="0.00" departDelay="0.00" arrival="303.00" arrivalLane="A0bottom0_0" arrivalPos="286.40" arrivalSpeed="15.61" duration="43.00" routeLength="576.73" waitingTime="0.00" waitingCount="0" stopTime="0.00" timeLoss="7.14" rerouteNo="0" devices="tripinfo_48" vType="DEFAULT_VEHTYPE" speedFactor="1.21" vaporized=""/>
    <tripinfo id="31" depart="173.00" departLane="bottom3D0_0" departPos="5.10" departSpeed="0.00" departDelay="0.00" arrival="308.00" arrivalLane="D2right2_0" arrivalPos="286.40" arrivalSpeed="14.12" duration="135.00" routeLength="1177.07" waitingTime="28.00" waitingCount="3" stopTime="0.00" timeLoss="52.94" rerouteNo="0" devices="tripinfo_31" vType="DEFAULT_VEHTYPE" speedFactor="1.05" vaporized=""/>
    <tripinfo id="33" depart="188.00" departLane="top2C3_0" departPos="5.10" departSpeed="0.00" departDelay="0.00" arrival="321.00" arrivalLane="D3top3_0" arrivalPos="286.40" arrivalSpeed="11.26" duration="133.00" routeLength="894.86" waitingTime="45.00" waitingCount="1" stopTime="0.00" timeLoss="57.75" rerouteNo="0" devices="tripinfo_33" vType="DEFAULT_VEHTYPE" speedFactor="0.87" vaporized=""/>
    <tripinfo id="17" depart="83.00" departLane="right2D2_0" departPos="5.10" departSpeed="0.00" departDelay="0.00" arrival="325.00" arrivalLane="D0right0_0" arrivalPos="286.40" arrivalSpeed="10.76" duration="242.00" routeLength="1197.66" waitingTime="109.00" waitingCount="3" stopTime="0.00" timeLoss="135.52" rerouteNo="0" devices="tripinfo_17" vType="DEFAULT_VEHTYPE" speedFactor="0.82" vaporized=""/>
    <tripinfo id="28" depart="156.00" departLane="bottom2C0_0" departPos="5.10" departSpeed="0.00" departDelay="0.00" arrival="327.00" arrivalLane="B3top1_0" arrivalPos="286.40" arrivalSpeed="13.02" duration="171.00" routeLength="1782.59" waitingTime="21.00" waitingCount="1" stopTime="0.00" timeLoss="43.92" rerouteNo="0" devices="tripinfo_28" vType="DEFAULT_VEHTYPE" speedFactor="1.02" vaporized=""/>
    <tripinfo id="38" depart="222.00" departLane="right0D0_0" departPos="5.10" departSpeed="0.00" departDelay="0.00" arrival="332.00" arrivalLane="C0bottom2_0" arrivalPos="286.40" arrivalSpeed="11.39" duration="110.00" routeLength="897.72" waitingTime="20.00" waitingCount="2" stopTime="0.00" timeLoss="37.85" rerouteNo="0" devices="tripinfo_38" vType="DEFAULT_VEHTYPE" speedFactor="0.91" vaporized=""/>
    <tripinfo id="45" depart="236.00" departLane="left3A3_0" departPos="5.10" departSpeed="0.00" departDelay="0.00" arrival="338.00" arrivalLane="B3top1_0" arrivalPos="286.40" arrivalSpeed="13.78" duration="102.00" routeLength="897.72" waitingTime="23.00" waitingCount="2" stopTime="0.00" timeLoss="39.81" rerouteNo="0" devices="tripinfo_45" vType="DEFAULT_VEHTYPE" speedFactor="1.06" vaporized=""/>
    <tripinfo id="53" depart="288.00" departLane="left0A0_0" departPos="5.10" departSpeed="0.00" departDelay="0.00" arrival="339.00" arrivalLane="A0bottom0_0" arrivalPos="286.40" arrivalSpeed="12.91" duration="51.00" routeLength="576.73" waitingTime="0.00" waitingCount="0" stopTime="0.00" timeLoss="6.98" rerouteNo="0" devices="tripinfo_53" vType="DEFAULT_VEHTYPE" speedFactor="0.97" vaporized=""/>
    <tripinfo id="6" depart="33.00" departLane="top1B3_0" departPos="5.10" departSpeed="0.00" departDelay="0.00" arrival="340.00" arrivalLane="D1right1_0" arrivalPos="286.40" arrivalSpeed="12.17" duration="307.00" routeLength="1795.52" waitingTime="139.00" waitingCount="5" stopTime="0.00" timeLoss="172.53" rerouteNo="0" devices="tripinfo_6" vType="DEFAULT_VEHTYPE" speedFactor="0.97" vaporized=""/>
    <tripinfo id="29" depart="158.00" departLane="left1A1_0" departPos="5.10" departSpeed="0.00" departDelay="0.00" arrival="342.00" arrivalLane="D1right1_0" arrivalPos="286.40" arrivalSpeed="12.46" duration="184.00" routeLength="1495.58" waitingTime="45.00" waitingCount="3" stopTime="0.00" timeLoss="72.83" rerouteNo="0" devices="tripinfo_29" vType="DEFAULT_VEHTYPE" speedFactor="0.97" vaporized=""/>
    <tripinfo id="41" depart="225.00" departLane="bottom0A0_0" departPos="5.10" departSpeed="0.00" departDelay="0.00" arrival="342.00" arrivalLane="C0bottom2_0" arrivalPos="286.40" arrivalSpeed="14.80" duration="117.00" routeLength="1161.43" waitingTime="16.00" waitingCount="2" stopTime="0.00" timeLoss="38.07" rerouteNo="0" devices="tripinfo_41" vType="DEFAULT_VEHTYPE" speedFactor="1.07" vaporized=""/>
    <tripinfo id="26" depart="126.00" departLane="right1D1_0" departPos="5.10" departSpeed="0.00" departDelay="0.00" arrival="349.00" arrivalLane="A3left3_0" arrivalPos="286.40" arrivalSpeed="13.29" duration="223.00" routeLength="2082.76" waitingTime="40.00" waitingCount="5" stopTime="0.00" timeLoss="75.52" rerouteNo="0" devices="tripinfo_26" vType="DEFAULT_VEHTYPE" speedFactor="1.03" vaporized=""/>
    <tripinfo id="23" depart="110.00" departLane="left2A2_0" departPos="5.10" departSpeed="0.00" departDelay="0.00" arrival="353.00" arrivalLane="D2right2_0" arrivalPos="286.40" arrivalSpeed="10.61" duration="243.00" routeLength="1495.58" waitingTime="86.00" waitingCount="3" stopTime="0.00" timeLoss="108.19" rerouteNo="0" devices="tripinfo_23" vType="DEFAULT_VEHTYPE" speedFactor="0.80" vaporized=""/>
    <tripinfo id="13" depart="58.00" departLane="bottom3D0_0" departPos="5.10" departSpeed="0.00" departDelay="0.00" arrival="358.00" arrivalLane="A3left3_0" arrivalPos="286.40" arrivalSpeed="13.50" duration="300.00" routeLength="2395.86" waitingTime="86.00" waitingCount="5" stopTime="0.00" timeLoss="130.62" rerouteNo="0" devices="tripinfo_13" vType="DEFAULT_VEHTYPE" speedFactor="1.02" vaporized=""/>
    <tripinfo id="15" depart="77.00" departLane="bottom2C0_0" departPos="5.10" departSpeed="0.00" departDelay="0.00" arrival="358.00" arrivalLane="D3top3_0" arrivalPos="286.40" arrivalSpeed="14.96" duration="281.00" routeLength="1782.72" waitingTime="123.00" waitingCount="5" stopTime="0.00" timeLoss="161.78" rerouteNo="0" devices="tripinfo_15" vType="DEFAULT_VEHTYPE" speedFactor="1.10" vaporized=""/>
    <tripinfo id="20" depart="91.00" departLane="top1B3_0" departPos="5.10" departSpeed="0.00" departDelay="0.00" arrival="361.00" arrivalLane="D0right0_0" arrivalPos="286.40" arrivalSpeed="13.18" duration="270.00" routeLength="2095.69" waitingTime="72.00" waitingCount="5" stopTime="0.00" timeLoss="111.26" rerouteNo="0" devices="tripinfo_20" vType="DEFAULT_VEHTYPE" speedFactor="0.96" vaporized=""/>
    <tripinfo id="39" depart="223.00" departLane="left0A0_0" departPos="5.10" departSpeed="0.00" departDelay="0.00" arrival="364.00" arrivalLane="D0bottom3_0" arrivalPos="286.40" arrivalSpeed="13.78" duration="141.00" routeLength="1477.24" waitingTime="13.00" waitingCount="2" stopTime="0.00" timeLoss="35.96" rerouteNo="0" devices="tripinfo_39" vType="DEFAULT_VEHTYPE" speedFactor="1.02" vaporized=""/>
    <tripinfo id="50" depart="265.00" departLane="left3A3_0" departPos="5.10" departSpeed="0.00" departDelay="0.00" arrival="370.00" arrivalLane="A1left1_0" arrivalPos="286.40" arrivalSpeed="13.96" duration="105.00" routeLength="1161.43" waitingTime="7.00" waitingCount="2" stopTime="0.00" timeLoss="24.51" rerouteNo="0" devices="tripinfo_50" vType="DEFAULT_VEHTYPE" speedFactor="1.06" vaporized=""/>
    <tripinfo id="40" depart="223.00" departLane="left2A2_0" departPos="5.10" departSpeed="0.00" departDelay="0.00" arrival="386.00" arrivalLane="D2right2_0" arrivalPos="286.40" arrivalSpeed="15.17" duration="163.00" routeLength="1495.58" waitingTime="38.00" waitingCount="3" stopTime="0.00" timeLoss="68.20" rerouteNo="0" devices="tripinfo_40" vType="DEFAULT_VEHTYPE" speedFactor="1.14" vaporized=""/>
    <tripinfo id="58" depart="300.00" departLane="bottom0A0_0" departPos="5.10" departSpeed="0.00" departDelay="0.00" arrival="390.00" arrivalLane="B0bottom1_0" arrivalPos="286.40" arrivalSpeed="10.87" duration="90.00" routeLength="858.56" waitingTime="2.00" waitingCount="2" stopTime="0.00" timeLoss="16.70" rerouteNo="0" devices="tripinfo_58" vType="DEFAULT_VEHTYPE" speedFactor="0.86" vaporized=""/>
    <tripinfo id="27" depart="132.00" departLane="bottom2C0_0" departPos="5.10" departSpeed="0.00" departDelay="0.00" arrival="401.00" arrivalLane="D3right3_0" arrivalPos="286.40" arrivalSpeed="11.47" duration="269.00" routeLength="1780.11" waitingTime="92.00" waitingCount="4" stopTime="0.00" timeLoss="123.45" rerouteNo="0" devices="tripinfo_27" vType="DEFAULT_VEHTYPE" speedFactor="0.89" vaporized=""/>
    <tripinfo id="44" depart="235.00" departLane="right1D1_0" departPos="5.10" departSpeed="0.00" departDelay="0.00" arrival="402.00" arrivalLane="C0bottom2_0" arrivalPos="286.40" arrivalSpeed="11.95" duration="167.00" routeLength="1195.18" waitingTime="51.00" waitingCount="2" stopTime="0.00" timeLoss="70.41" rerouteNo="0" devices="tripinfo_44" vType="DEFAULT_VEHTYPE" speedFactor="0.90" vaporized=""/>
    <tripinfo id="42" depart="228.00" departLane="left2A2_0" departPos="5.10" departSpeed="0.00" departDelay="0.00" arrival="407.00" arrivalLane="D3right3_0" arrivalPos="286.40" arrivalSpeed="10.90" duration="179.00" routeLength="1782.59" waitingTime="8.00" waitingCount="2" stopTime="0.00" timeLoss="30.67" rerouteNo="0" devices="tripinfo_42" vType="DEFAULT_VEHTYPE" speedFactor="0.87" vaporized=""/>
    <tripinfo id="49" depart="260.00" departLane="left1A1_0" departPos="5.10" departSpeed="0.00" departDelay="0.00" arrival="412.00" arrivalLane="B0bottom1_0" arrivalPos="286.40" arrivalSpeed="12.27" duration="152.00" routeLength="1179.77" waitingTime="32.00" waitingCount="2" stopTime="0.00" timeLoss="55.63" rerouteNo="0" devices="tripinfo_49" vType="DEFAULT_VEHTYPE" speedFactor="0.89" vaporized=""/>
    <tripinfo id="62" depart="314.00" departLane="left0A0_0" departPos="5.10" departSpeed="0.00" departDelay="0.00" arrival="418.00" arrivalLane="C0bottom2_0" arrivalPos="286.40" arrivalSpeed="12.46" duration="104.00" routeLength="1177.07" waitingTime="1.00" waitingCount="1" stopTime="0.00" timeLoss="14.98" rerouteNo="0" devices="tripinfo_62" vType="DEFAULT_VEHTYPE" speedFactor="0.97" vaporized=""/>
    <tripinfo id="60" depart="308.00" departLane="left1A1_0" departPos="5.10" departSpeed="0.00" departDelay="0.00" arrival="428.00" arrivalLane="A3top0_0" arrivalPos="286.40" arrivalSpeed="14.29" duration="120.00" routeLength="1195.18" waitingTime="19.00" waitingCount="1" stopTime="0.00" timeLoss="35.74" rerouteNo="0" devices="tripinfo_60" vType="DEFAULT_VEHTYPE" speedFactor="1.03" vaporized=""/>
    <tripinfo id="24" depart="113.00" departLane="right0D0_0" departPos="5.10" departSpeed="0.00" departDelay="0.00" arrival="430.00" arrivalLane="A3left3_0" arrivalPos="286.40" arrivalSpeed="12.97" duration="317.00" routeLength="2382.93" waitingTime="101.00" waitingCount="4" stopTime="0.00" timeLoss="139.66" rerouteNo="0" devices="tripinfo_24" vType="DEFAULT_VEHTYPE" speedFactor="0.97" vaporized=""/>
    <tripinfo id="47" depart="250.00" departLane="bottom3D0_0" departPos="5.10" departSpeed="0.00" departDelay="0.00" arrival="441.00" arrivalLane="C3top2_0" arrivalPos="286.40" arrivalSpeed="12.22" duration="191.00" routeLength="1782.59" waitingTime="27.00" waitingCount="3" stopTime="0.00" timeLoss="50.56" rerouteNo="0" devices="tripinfo_47" vType="DEFAULT_VEHTYPE" speedFactor="0.92" vaporized=""/>
    <tripinfo id="76" depart="374.00" departLane="right0D0_0" departPos="5.10" departSpeed="0.00" departDelay="0.00" arrival="451.00" arrivalLane="C0bottom2_0" arrivalPos="286.40" arrivalSpeed="15.08" duration="77.00" routeLength="897.72" waitingTime="4.00" waitingCount="1" stopTime="0.00" timeLoss="17.69" rerouteNo="0" devices="tripinfo_76" vType="DEFAULT_VEHTYPE" speedFactor="1.11" vaporized=""/>
    <tripinfo id="37" depart="212.00" departLane="bottom3D0_0" departPos="5.10" departSpeed="0.00" departDelay="0.00" arrival="456.00" arrivalLane="B3top1_0" arrivalPos="286.40" arrivalSpeed="15.79" duration="244.00" routeLength="2080.05" waitingTime="78.00" waitingCount="4" stopTime="0.00" timeLoss="113.83" rerouteNo="0" devices="tripinfo_37" vType="DEFAULT_VEHTYPE" speedFactor="1.16" vaporized=""/>
    <tripinfo id="74" depart="369.00" departLane="right2D2_0" departPos="5.10" departSpeed="0.00" departDelay="0.00" arrival="456.00" arrivalLane="D1right1_0" arrivalPos="286.40" arrivalSpeed="12.21" duration="87.00" routeLength="894.86" waitingTime="6.00" waitingCount="1" stopTime="0.00" timeLoss="17.22" rerouteNo="0" devices="tripinfo_74" vType="DEFAULT_VEHTYPE" speedFactor="0.94" vaporized=""/>
    <tripinfo id="51" depart="287.00" departLane="top0A3_0" departPos="5.10" departSpeed="0.00" departDelay="0.00" arrival="458.00" arrivalLane="A0left0_0" arrivalPos="286.40" arrivalSpeed="13.20" duration="171.00" routeLength="1477.24" waitingTime="34.00" waitingCount="3" stopTime="0.00" timeLoss="58.27" rerouteNo="0" devices="tripinfo_51" vType="DEFAULT_VEHTYPE" speedFactor="0.95" vaporized=""/>
    <tripinfo id="70" depart="349.00" departLane="right2D2_0" departPos="5.10" departSpeed="0.00" departDelay="0.00" arrival="460.00" arrivalLane="D0bottom3_0" arrivalPos="286.40" arrivalSpeed="12.35" duration="111.00" routeLength="1195.18" waitingTime="6.00" waitingCount="1" stopTime="0.00" timeLoss="17.40" rerouteNo="0" devices="tripinfo_70" vType="DEFAULT_VEHTYPE" speedFactor="0.93" vaporized=""/>
    <tripinfo id="55" depart="296.00" departLane="left3A3_0" departPos="5.10" departSpeed="0.00" departDelay="0.00" arrival="463.00" arrivalLane="A0left0_0" arrivalPos="286.40" arrivalSpeed="13.56" duration="167.00" routeLength="1461.60" waitingTime="25.00" waitingCount="3" stopTime="0.00" timeLoss="60.02" rerouteNo="0" devices="tripinfo_55" vType="DEFAULT_VEHTYPE" speedFactor="1.00" vaporized=""/>
    <tripinfo id="34" depart="197.00" departLane="bottom1B0_0" departPos="5.10" departSpeed="0.00" departDelay="0.00" arrival="469.00" arrivalLane="A3top0_0" arrivalPos="286.40" arrivalSpeed="12.41" duration="272.00" routeLength="1782.59" waitingTime="106.00" waitingCount="5" stopTime="0.00" timeLoss="139.94" rerouteNo="0" devices="tripinfo_34" vType="DEFAULT_VEHTYPE" speedFactor="0.98" vaporized=""/>
    <tripinfo id="36" depart="209.00" departLane="left3A3_0" departPos="5.10" departSpeed="0.00" departDelay="0.00" arrival="471.00" arrivalLane="C0bottom2_0" arrivalPos="286.40" arrivalSpeed="11.52" duration="262.00" routeLength="2080.28" waitingTime="61.00" waitingCount="4" stopTime="0.00" timeLoss="97.59" rerouteNo="0" devices="tripinfo_36" vType="DEFAULT_VEHTYPE" speedFactor="0.92" vaporized=""/>
    <tripinfo id="61" depart="314.00" departLane="top0A3_0" departPos="5.10" departSpeed="0.00" departDelay="0.00" arrival="478.00" arrivalLane="A0bottom0_0" arrivalPos="286.40" arrivalSpeed="14.19" duration="164.00" routeLength="1495.58" waitingTime="26.00" waitingCount="3" stopTime="0.00" timeLoss="62.02" rerouteNo="0" devices="tripinfo_61" vType="DEFAULT_VEHTYPE" speedFactor="1.06" vaporized=""/>
    <tripinfo id="73" depart="365.00" departLane="bottom0A0_0" departPos="5.10" departSpeed="0.00" departDelay="0.00" arrival="479.00" arrivalLane="A1left1_0" arrivalPos="286.40" arrivalSpeed="13.54" duration="114.00" routeLength="897.72" waitingTime="32.00" waitingCount="2" stopTime="0.00" timeLoss="50.21" rerouteNo="0" devices="tripinfo_73" vType="DEFAULT_VEHTYPE" speedFactor="1.03" vaporized=""/>
    <tripinfo id="67" depart="341.00" departLane="left3A3_0" departPos="5.10" departSpeed="0.00" departDelay="0.00" arrival="482.00" arrivalLane="B3top1_0" arrivalPos="286.40" arrivalSpeed="11.18" duration="141.00" routeLength="897.72" waitingTime="49.00" waitingCount="2" stopTime="0.00" timeLoss="66.97" rerouteNo="0" devices="tripinfo_67" vType="DEFAULT_VEHTYPE" speedFactor="0.88" vaporized=""/>
    <tripinfo id="69" depart="347.00" departLane="bottom1B0_0" departPos="5.10" departSpeed="0.00" departDelay="0.00" arrival="483.00" arrivalLane="D0right0_0" arrivalPos="286.40" arrivalSpeed="13.49" duration="136.00" routeLength="1179.77" waitingTime="34.00" waitingCount="1" stopTime="0.00" timeLoss="49.87" rerouteNo="0" devices="tripinfo_69" vType="DEFAULT_VEHTYPE" speedFactor="1.01" vaporized=""/>
    <tripinfo id="59" depart="304.00" departLane="top1B3_0" departPos="5.10" departSpeed="0.00" departDelay="0.00" arrival="484.00" arrivalLane="B3top1_0" arrivalPos="286.40" arrivalSpeed="11.70" duration="180.00" routeLength="1748.75" waitingTime="7.00" waitingCount="2" stopTime="0.00" timeLoss="39.10" rerouteNo="0" devices="tripinfo_59" vType="DEFAULT_VEHTYPE" speedFactor="0.91" vaporized=""/>
    <tripinfo id="66" depart="333.00" departLane="top3D3_0" departPos="5.10" departSpeed="0.00" departDelay="0.00" arrival="485.00" arrivalLane="D3top3_0" arrivalPos="286.40" arrivalSpeed="16.26" duration="152.00" routeLength="1748.75" waitingTime="8.00" waitingCount="4" stopTime="0.00" timeLoss="44.94" rerouteNo="0" devices="tripinfo_66" vType="DEFAULT_VEHTYPE" speedFactor="1.20" vaporized=""/>
    <tripinfo id="87" depart="400.00" departLane="left1A1_0" departPos="5.10" departSpeed="0.00" departDelay="0.00" arrival="487.00" arrivalLane="A2left2_0" arrivalPos="286.40" arrivalSpeed="14.59" duration="87.00" routeLength="894.86" waitingTime="10.00" waitingCount="2" stopTime="0.00" timeLoss="28.33" rerouteNo="0" devices="tripinfo_87" vType="DEFAULT_VEHTYPE" speedFactor="1.13" vaporized=""/>
    <tripinfo id="56" depart="297.00" departLane="top3D3_0" departPos="5.10" departSpeed="0.00" departDelay="0.00" arrival="489.00" arrivalLane="A3left3_0" arrivalPos="286.40" arrivalSpeed="13.08" duration="192.00" routeLength="1479.94" waitingTime="55.00" waitingCount="4" stopTime="0.00" timeLoss="82.19" rerouteNo="0" devices="tripinfo_56" vType="DEFAULT_VEHTYPE" speedFactor="0.98" vaporized=""/>
    <tripinfo id="77" depart="375.00" departLane="top2C3_0" departPos="5.10" departSpeed="0.00" departDelay="0.00" arrival="489.00" arrivalLane="A3left3_1" arrivalPos="286.40" arrivalSpeed="15.29" duration="114.00" routeLength="1179.77" waitingTime="13.00" waitingCount="2" stopTime="0.00" timeLoss="38.27" rerouteNo="0" devices="tripinfo_77" vType="DEFAULT_VEHTYPE" speedFactor="1.14" vaporized=""/>
    <tripinfo id="94" depart="439.00" departLane="right3D3_0" departPos="5.10" departSpeed="0.00" departDelay="0.00" arrival="489.00" arrivalLane="D3top3_0" arrivalPos="286.40" arrivalSpeed="15.12" duration="50.00" routeLength="576.73" waitingTime="2.00" waitingCount="1" stopTime="0.00" timeLoss="13.45" rerouteNo="0" devices="tripinfo_94" vType="DEFAULT_VEHTYPE" speedFactor="1.15" vaporized=""/>
    <tripinfo id="46" depart="242.00" departLane="left2A2_0" departPos="5.10" departSpeed="0.00" departDelay="0.00" arrival="494.00" arrivalLane="D1right1_0" arrivalPos="286.40" arrivalSpeed="10.75" duration="252.00" routeLength="1782.72" waitingTime="57.00" waitingCount="5" stopTime="0.00" timeLoss="94.20" rerouteNo="0" devices="tripinfo_46" vType="DEFAULT_VEHTYPE" speedFactor="0.82" vaporized=""/>
    <tripinfo id="88" depart="401.00" departLane="top1B3_0" departPos="5.10" departSpeed="0.00" departDelay="0.00" arrival="496.00" arrivalLane="A3left3_0" arrivalPos="286.40" arrivalSpeed="12.28" duration="95.00" routeLength="879.60" waitingTime="6.00" waitingCount="2" stopTime="0.00" timeLoss="23.35" rerouteNo="0" devices="tripinfo_88" vType="DEFAULT_VEHTYPE" speedFactor="0.90" vaporized=""/>
    <tripinfo id="63" depart="321.00" departLane="bottom2C0_0" departPos="5.10" departSpeed="0.00" departDelay="0.00" arrival="498.00" arrivalLane="B3top1_0" arrivalPos="286.40" arrivalSpeed="14.23" duration="177.00" routeLength="1782.59" waitingTime="30.00" waitingCount="2" stopTime="0.00" timeLoss="54.21" rerouteNo="0" devices="tripinfo_63" vType="DEFAULT_VEHTYPE" speedFactor="1.06" vaporized=""/>
    <tripinfo id="65" depart="332.00" departLane="bottom2C0_0" departPos="5.10" departSpeed="0.00" departDelay="0.00" arrival="501.00" arrivalLane="A0bottom0_0" arrivalPos="286.40" arrivalSpeed="12.05" duration="169.00" routeLength="1197.66" waitingTime="48.00" waitingCount="3" stopTime="0.00" timeLoss="73.44" rerouteNo="0" devices="tripinfo_65" vType="DEFAULT_VEHTYPE" speedFactor="0.91" vaporized=""/>