<?xml version="1.0" encoding="UTF-8"?>

<!-- generated on 12/08/21 19:26:16 by Eclipse SUMO sumo Version 1.7.0
<configuration xmlns:xsi="http://www.w3.org/2001/XMLSchema-instance" xsi:noNamespaceSchemaLocation="http://sumo.dlr.de/xsd/sumoConfiguration.xsd">

    <input>
        <net-file value="C:\Users\longs\Desktop\RESCO-main\environments/ingolstadt21/ingolstadt21.net.xml"/>
        <route-files value="C:\Users\longs\Desktop\RESCO-main\environments/ingolstadt21/ingolstadt21.rou.xml"/>
    </input>

    <output>
        <tripinfo-output value="C:\Users\longs\Desktop\RESCO-main\logs\STOCHASTIC-tr1-ingolstadt21-21-mplight-wait\tripinfo_27.xml"/>
        <tripinfo-output.write-unfinished value="true"/>
    </output>

    <time>
        <begin value="57600"/>
        <end value="61200"/>
    </time>

    <processing>
        <time-to-teleport value="-1"/>
    </processing>

    <report>
        <no-warnings value="true"/>
        <no-step-log value="true"/>
    </report>

    <traci_server>
        <remote-port value="55941"/>
    </traci_server>

    <random_number>
        <random value="true"/>
    </random_number>

</configuration>
-->

<tripinfos xmlns:xsi="http://www.w3.org/2001/XMLSchema-instance" xsi:noNamespaceSchemaLocation="http://sumo.dlr.de/xsd/tripinfo_file.xsd">
    <tripinfo id="h15454c2:3" depart="57612.00" departLane="24608844_1" departPos="5.10" departSpeed="0.00" departDelay="0.50" arrival="57655.00" arrivalLane="32978638#0_1" arrivalPos="49.29" arrivalSpeed="12.54" duration="43.00" routeLength="354.79" waitingTime="0.00" waitingCount="0" stopTime="0.00" timeLoss="6.12" rerouteNo="1" devices="tripinfo_h15454c2:3 routing_h15454c2:3" vType="default_016" speedFactor="0.93" vaporized=""/>
    <tripinfo id="carIn60260:1" depart="57606.00" departLane="315358254#0_1" departPos="5.10" departSpeed="0.00" departDelay="0.90" arrival="57663.00" arrivalLane="399835085#1_1" arrivalPos="212.23" arrivalSpeed="7.66" duration="57.00" routeLength="430.98" waitingTime="1.00" waitingCount="1" stopTime="0.00" timeLoss="11.21" rerouteNo="1" devices="tripinfo_carIn60260:1 routing_carIn60260:1" vType="default_016" speedFactor="1.01" vaporized=""/>
    <tripinfo id="carIn53971:1" depart="57640.00" departLane="272042143_1" departPos="5.10" departSpeed="0.00" departDelay="0.80" arrival="57700.00" arrivalLane="24634414#1_1" arrivalPos="162.19" arrivalSpeed="7.31" duration="60.00" routeLength="493.04" waitingTime="0.00" waitingCount="0" stopTime="0.00" timeLoss="8.35" rerouteNo="1" devices="tripinfo_carIn53971:1 routing_carIn53971:1" vType="default_016" speedFactor="0.88" vaporized=""/>
    <tripinfo id="h3688c1:1" depart="57625.00" departLane="201201950#1_1" departPos="5.10" departSpeed="0.00" departDelay="0.00" arrival="57709.00" arrivalLane="32978638#0_1" arrivalPos="49.29" arrivalSpeed="14.00" duration="84.00" routeLength="1089.75" waitingTime="0.00" waitingCount="0" stopTime="0.00" timeLoss="9.78" rerouteNo="1" devices="tripinfo_h3688c1:1 routing_h3688c1:1" vType="default_016" speedFactor="1.09" vaporized=""/>
    <tripinfo id="h7800c1:5" depart="57696.00" departLane="-447569998#1_1" departPos="5.10" departSpeed="0.00" departDelay="0.00" arrival="57719.00" arrivalLane="-447569998#1_2" arrivalPos="180.76" arrivalSpeed="8.68" duration="23.00" routeLength="175.66" waitingTime="0.00" waitingCount="0" stopTime="0.00" timeLoss="3.36" rerouteNo="1" devices="tripinfo_h7800c1:5 routing_h7800c1:5" vType="default_016" speedFactor="1.10" vaporized=""/>
    <tripinfo id="carIn22761:1" depart="57616.00" departLane="-306240162#1_0" departPos="5.10" departSpeed="0.00" departDelay="2.10" arrival="57720.00" arrivalLane="399835085#1_1" arrivalPos="212.23" arrivalSpeed="6.77" duration="104.00" routeLength="1093.26" waitingTime="0.00" waitingCount="0" stopTime="0.00" timeLoss="17.75" rerouteNo="1" devices="tripinfo_carIn22761:1 routing_carIn22761:1" vType="default_016" speedFactor="0.91" vaporized=""/>
    <tripinfo id="h3568c1:3" depart="57656.00" departLane="266565295#5_1" departPos="5.10" departSpeed="0.00" departDelay="0.80" arrival="57737.00" arrivalLane="-24634415_1" arrivalPos="62.03" arrivalSpeed="12.30" duration="81.00" routeLength="807.40" waitingTime="0.00" waitingCount="0" stopTime="0.00" timeLoss="11.94" rerouteNo="1" devices="tripinfo_h3568c1:3 routing_h3568c1:3" vType="default_016" speedFactor="0.94" vaporized=""/>
    <tripinfo id="h4538c1:1" depart="57701.00" departLane="-10427692#1_1" departPos="5.10" departSpeed="0.00" departDelay="0.00" arrival="57737.00" arrivalLane="-128361102#1_1" arrivalPos="274.68" arrivalSpeed="14.11" duration="36.00" routeLength="440.74" waitingTime="0.00" waitingCount="0" stopTime="0.00" timeLoss="6.18" rerouteNo="1" devices="tripinfo_h4538c1:1 routing_h4538c1:1" vType="default_016" speedFactor="1.07" vaporized=""/>
    <tripinfo id="h7181c1:1" depart="57660.00" departLane="315358254#0_1" departPos="5.10" departSpeed="0.00" departDelay="0.10" arrival="57742.00" arrivalLane="306240162#0_0" arrivalPos="220.43" arrivalSpeed="16.70" duration="82.00" routeLength="932.35" waitingTime="17.00" waitingCount="1" stopTime="0.00" timeLoss="31.40" rerouteNo="1" devices="tripinfo_h7181c1:1 routing_h7181c1:1" vType="default_016" speedFactor="1.02" vaporized=""/>
    <tripinfo id="h317c2:1" depart="57707.00" departLane="-32978638#0_1" departPos="5.10" departSpeed="0.00" departDelay="0.10" arrival="57744.00" arrivalLane="-266565295#5_1" arrivalPos="172.76" arrivalSpeed="14.19" duration="37.00" routeLength="370.53" waitingTime="1.00" waitingCount="1" stopTime="0.00" timeLoss="10.71" rerouteNo="1" devices="tripinfo_h317c2:1 routing_h317c2:1" vType="default_016" speedFactor="1.05" vaporized=""/>
    <tripinfo id="h5979c1:5" depart="57669.00" departLane="399835085#1_1" departPos="5.10" departSpeed="0.00" departDelay="0.00" arrival="57754.00" arrivalLane="-315358254#1_1" arrivalPos="137.16" arrivalSpeed="13.55" duration="85.00" routeLength="659.33" waitingTime="0.00" waitingCount="0" stopTime="0.00" timeLoss="11.08" rerouteNo="1" devices="tripinfo_h5979c1:5 routing_h5979c1:5" vType="default_016" speedFactor="0.99" vaporized=""/>
    <tripinfo id="carIn30817:1" depart="57681.00" departLane="315358244_1" departPos="5.10" departSpeed="0.00" departDelay="0.20" arrival="57765.00" arrivalLane="447569997#1_1" arrivalPos="180.93" arrivalSpeed="7.58" duration="84.00" routeLength="718.04" waitingTime="9.00" waitingCount="1" stopTime="0.00" timeLoss="23.65" rerouteNo="1" devices="tripinfo_carIn30817:1 routing_carIn30817:1" vType="default_016" speedFactor="1.01" vaporized=""/>
    <tripinfo id="h12244c1:3" depart="57612.00" departLane="315358244_1" departPos="5.10" departSpeed="0.00" departDelay="0.40" arrival="57767.00" arrivalLane="386687235_1" arrivalPos="80.84" arrivalSpeed="12.80" duration="155.00" routeLength="1186.14" waitingTime="47.00" waitingCount="3" stopTime="0.00" timeLoss="68.78" rerouteNo="1" devices="tripinfo_h12244c1:3 routing_h12244c1:3" vType="default_016" speedFactor="1.01" vaporized=""/>
    <tripinfo id="carIn27009:1" depart="57673.00" departLane="-447569998#1_1" departPos="5.10" departSpeed="0.00" departDelay="0.50" arrival="57768.00" arrivalLane="-26677539_1" arrivalPos="152.75" arrivalSpeed="9.15" duration="95.00" routeLength="699.63" waitingTime="5.00" waitingCount="1" stopTime="0.00" timeLoss="18.58" rerouteNo="1" devices="tripinfo_carIn27009:1 routing_carIn27009:1" vType="default_015" speedFactor="1.10" vaporized=""/>
    <tripinfo id="h330c1:1" depart="57736.00" departLane="-32978638#0_1" departPos="5.10" departSpeed="0.00" departDelay="0.20" arrival="57776.00" arrivalLane="-266565295#5_1" arrivalPos="172.76" arrivalSpeed="12.27" duration="40.00" routeLength="370.53" waitingTime="1.00" waitingCount="1" stopTime="0.00" timeLoss="11.32" rerouteNo="1" devices="tripinfo_h330c1:1 routing_h330c1:1" vType="default_016" speedFactor="0.96" vaporized=""/>
    <tripinfo id="h3326c1:2" depart="57656.00" departLane="22716069#0_1" departPos="5.10" departSpeed="0.00" departDelay="0.00" arrival="57781.00" arrivalLane="24634517#13_1" arrivalPos="111.62" arrivalSpeed="11.44" duration="125.00" routeLength="1312.81" waitingTime="0.00" waitingCount="0" stopTime="0.00" timeLoss="15.10" rerouteNo="1" devices="tripinfo_h3326c1:2 routing_h3326c1:2" vType="default_016" speedFactor="0.89" vaporized=""/>
    <tripinfo id="S5R_frequency1.2" depart="57624.00" departLane="315358250#0_1" departPos="12.10" departSpeed="0.00" departDelay="12.40" arrival="57787.00" arrivalLane="386687235_1" arrivalPos="80.84" arrivalSpeed="13.69" duration="163.00" routeLength="1115.62" waitingTime="50.00" waitingCount="3" stopTime="0.00" timeLoss="81.20" rerouteNo="1" devices="tripinfo_S5R_frequency1.2 routing_S5R_frequency1.2" vType="bus" speedFactor="1.00" vaporized=""/>
    <tripinfo id="carIn82278:1" depart="57702.00" departLane="-306240162#1_0" departPos="5.10" departSpeed="0.00" departDelay="0.70" arrival="57797.00" arrivalLane="399835085#1_1" arrivalPos="212.23" arrivalSpeed="8.93" duration="95.00" routeLength="1093.26" waitingTime="1.00" waitingCount="1" stopTime="0.00" timeLoss="29.78" rerouteNo="1" devices="tripinfo_carIn82278:1 routing_carIn82278:1" vType="default_016" speedFactor="1.19" vaporized=""/>
    <tripinfo id="h9563c2:5" depart="57631.00" departLane="315358244_1" departPos="5.10" departSpeed="0.00" departDelay="0.70" arrival="57819.00" arrivalLane="386687235_1" arrivalPos="80.84" arrivalSpeed="11.26" duration="188.00" routeLength="1186.14" waitingTime="66.00" waitingCount="2" stopTime="0.00" timeLoss="86.48" rerouteNo="1" devices="tripinfo_h9563c2:5 routing_h9563c2:5" vType="default_016" speedFactor="0.85" vaporized=""/>
    <tripinfo id="h645c1:1" depart="57622.00" departLane="266565295#5_1" departPos="5.10" departSpeed="0.00" departDelay="0.40" arrival="57823.00" arrivalLane="-315358244_2" arrivalPos="33.95" arrivalSpeed="11.96" duration="201.00" routeLength="1910.83" waitingTime="30.00" waitingCount="2" stopTime="0.00" timeLoss="52.91" rerouteNo="1" devices="tripinfo_h645c1:1 routing_h645c1:1" vType="default_016" speedFactor="0.94" vaporized=""/>
    <tripinfo id="carIn121703:1" depart="57647.00" departLane="386687232#0_1" departPos="5.10" departSpeed="0.00" departDelay="0.30" arrival="57824.00" arrivalLane="-315358244_1" arrivalPos="33.95" arrivalSpeed="11.86" duration="177.00" routeLength="1157.39" waitingTime="61.00" waitingCount="3" stopTime="0.00" timeLoss="82.57" rerouteNo="1" devices="tripinfo_carIn121703:1 routing_carIn121703:1" vType="default_016" speedFactor="0.90" vaporized=""/>
    <tripinfo id="h16072c2:3" depart="57663.00" departLane="315358254#0_1" departPos="5.10" departSpeed="0.00" departDelay="2.50" arrival="57824.00" arrivalLane="386687235_1" arrivalPos="80.84" arrivalSpeed="12.77" duration="161.00" routeLength="1611.92" waitingTime="20.00" waitingCount="2" stopTime="0.00" timeLoss="42.17" rerouteNo="1" devices="tripinfo_h16072c2:3 routing_h16072c2:3" vType="default_016" speedFactor="0.99" vaporized=""/>
    <tripinfo id="50R_frequency3.17" depart="57674.00" departLane="-18809673#6_1" departPos="12.10" departSpeed="0.00" departDelay="0.70" arrival="57838.00" arrivalLane="201956811#0_1" arrivalPos="40.40" arrivalSpeed="11.55" duration="164.00" routeLength="1954.47" waitingTime="0.00" waitingCount="0" stopTime="0.00" timeLoss="18.82" rerouteNo="1" devices="tripinfo_50R_frequency3.17 routing_50R_frequency3.17" vType="bus" speedFactor="1.00" vaporized=""/>
    <tripinfo id="carIn107084:1" depart="57601.00" departLane="124812856#0_1" departPos="5.10" departSpeed="0.00" departDelay="0.70" arrival="57839.00" arrivalLane="-128361102#1_1" arrivalPos="274.68" arrivalSpeed="13.01" duration="238.00" routeLength="2250.49" waitingTime="36.00" waitingCount="2" stopTime="0.00" timeLoss="62.37" rerouteNo="1" devices="tripinfo_carIn107084:1 routing_carIn107084:1" vType="default_016" speedFactor="0.94" vaporized=""/>
    <tripinfo id="carIn28951:1" depart="57606.00" departLane="10425609#0_1" departPos="5.10" departSpeed="0.00" departDelay="0.20" arrival="57840.00" arrivalLane="-128361102#1_1" arrivalPos="274.68" arrivalSpeed="14.28" duration="234.00" routeLength="2113.04" waitingTime="36.00" waitingCount="3" stopTime="0.00" timeLoss="94.31" rerouteNo="1" devices="tripinfo_carIn28951:1 routing_carIn28951:1" vType="default_016" speedFactor="1.11" vaporized=""/>
    <tripinfo id="carIn86816:1" depart="57617.00" departLane="128361102#0_1" departPos="5.10" departSpeed="0.00" departDelay="0.80" arrival="57840.00" arrivalLane="201956811#0_1" arrivalPos="40.40" arrivalSpeed="13.28" duration="223.00" routeLength="2067.33" waitingTime="35.00" waitingCount="2" stopTime="0.00" timeLoss="65.89" rerouteNo="1" devices="tripinfo_carIn86816:1 routing_carIn86816:1" vType="default_016" speedFactor="0.96" vaporized=""/>
    <tripinfo id="h20540c1:1" depart="57634.00" departLane="10425609#0_1" departPos="5.10" departSpeed="0.00" departDelay="0.50" arrival="57842.00" arrivalLane="-128361102#1_1" arrivalPos="274.68" arrivalSpeed="14.31" duration="208.00" routeLength="2113.04" waitingTime="9.00" waitingCount="3" stopTime="0.00" timeLoss="69.52" rerouteNo="1" devices="tripinfo_h20540c1:1 routing_h20540c1:1" vType="default_016" speedFactor="1.12" vaporized=""/>
    <tripinfo id="carIn80064:1" depart="57603.00" departLane="128361109#1_1" departPos="5.10" departSpeed="0.00" departDelay="0.40" arrival="57846.00" arrivalLane="-315358254#1_1" arrivalPos="137.16" arrivalSpeed="14.03" duration="243.00" routeLength="1587.97" waitingTime="123.00" waitingCount="3" stopTime="0.00" timeLoss="159.10" rerouteNo="1" devices="tripinfo_carIn80064:1 routing_carIn80064:1" vType="default_016" speedFactor="1.07" vaporized=""/>
    <tripinfo id="carIn12365:1" depart="57713.00" departLane="315358244_1" departPos="5.10" departSpeed="0.00" departDelay="0.50" arrival="57846.00" arrivalLane="447569997#1_1" arrivalPos="180.93" arrivalSpeed="7.28" duration="133.00" routeLength="718.04" waitingTime="58.00" waitingCount="1" stopTime="0.00" timeLoss="70.77" rerouteNo="1" devices="tripinfo_carIn12365:1 routing_carIn12365:1" vType="default_016" speedFactor="1.00" vaporized=""/>
    <tripinfo id="carIn107282:1" depart="57749.00" departLane="-447569998#1_1" departPos="5.10" departSpeed="0.00" departDelay="0.00" arrival="57847.00" arrivalLane="315358242#0_1" arrivalPos="165.37" arrivalSpeed="13.09" duration="98.00" routeLength="448.50" waitingTime="45.00" waitingCount="1" stopTime="0.00" timeLoss="53.62" rerouteNo="1" devices="tripinfo_carIn107282:1 routing_carIn107282:1" vType="default_016" speedFactor="0.94" vaporized=""/>
    <tripinfo id="h3154c1:1" depart="57658.00" departLane="24634507_1" departPos="5.10" departSpeed="0.00" departDelay="0.00" arrival="57848.00" arrivalLane="-266565295#5_1" arrivalPos="172.76" arrivalSpeed="13.45" duration="190.00" routeLength="1206.22" waitingTime="77.00" waitingCount="2" stopTime="0.00" timeLoss="98.41" rerouteNo="1" devices="tripinfo_h3154c1:1 routing_h3154c1:1" vType="default_016" speedFactor="0.97" vaporized=""/>
    <tripinfo id="randUni15030:1" depart="57735.00" departLane="386687232#0_1" departPos="5.10" departSpeed="0.00" departDelay="0.10" arrival="57849.00" arrivalLane="26677539_1" arrivalPos="151.98" arrivalSpeed="9.39" duration="114.00" routeLength="919.89" waitingTime="25.00" waitingCount="1" stopTime="0.00" timeLoss="41.27" rerouteNo="1" devices="tripinfo_randUni15030:1 routing_randUni15030:1" vType="random_016" speedFactor="1.16" vaporized=""/>
    <tripinfo id="h6541c1:3" depart="57727.00" departLane="201950247#3_1" departPos="5.10" departSpeed="0.00" departDelay="0.00" arrival="57850.00" arrivalLane="32978638#0_1" arrivalPos="49.29" arrivalSpeed="14.39" duration="123.00" routeLength="1176.17" waitingTime="7.00" waitingCount="1" stopTime="0.00" timeLoss="24.57" rerouteNo="1" devices="tripinfo_h6541c1:3 routing_h6541c1:3" vType="default_016" speedFactor="1.04" vaporized=""/>
    <tripinfo id="carIn12858:1" depart="57661.00" departLane="128361109#1_1" departPos="5.10" departSpeed="0.00" departDelay="0.90" arrival="57853.00" arrivalLane="399835085#1_1" arrivalPos="212.23" arrivalSpeed="8.32" duration="192.00" routeLength="1738.12" waitingTime="48.00" waitingCount="3" stopTime="0.00" timeLoss="78.78" rerouteNo="1" devices="tripinfo_carIn12858:1 routing_carIn12858:1" vType="default_016" speedFactor="1.02" vaporized=""/>
    <tripinfo id="carIn118591:1" depart="57689.00" departLane="315358244_1" departPos="5.10" departSpeed="0.00" departDelay="0.20" arrival="57854.00" arrivalLane="386687235_1" arrivalPos="80.84" arrivalSpeed="11.64" duration="165.00" routeLength="1186.14" waitingTime="39.00" waitingCount="3" stopTime="0.00" timeLoss="64.20" rerouteNo="1" devices="tripinfo_carIn118591:1 routing_carIn118591:1" vType="default_016" speedFactor="0.86" vaporized=""/>
    <tripinfo id="h11737c1:1" depart="57665.00" departLane="272042143_1" departPos="5.10" departSpeed="0.00" departDelay="1.50" arrival="57858.00" arrivalLane="-315358254#1_1" arrivalPos="137.16" arrivalSpeed="11.90" duration="193.00" routeLength="1596.88" waitingTime="46.00" waitingCount="1" stopTime="0.00" timeLoss="63.79" rerouteNo="1" devices="tripinfo_h11737c1:1 routing_h11737c1:1" vType="default_016" speedFactor="0.90" vaporized=""/>
    <tripinfo id="carIn126288:1" depart="57674.00" departLane="272042143_1" departPos="5.10" departSpeed="0.00" departDelay="0.00" arrival="57860.00" arrivalLane="-315358254#1_1" arrivalPos="137.16" arrivalSpeed="12.20" duration="186.00" routeLength="1596.88" waitingTime="44.00" waitingCount="1" stopTime="0.00" timeLoss="63.01" rerouteNo="1" devices="tripinfo_carIn126288:1 routing_carIn126288:1" vType="default_016" speedFactor="0.95" vaporized=""/>
    <tripinfo id="carIn12152:1" depart="57647.00" departLane="24599188#0.94_1" departPos="5.10" departSpeed="0.00" departDelay="0.50" arrival="57863.00" arrivalLane="-315358254#1_1" arrivalPos="137.16" arrivalSpeed="12.41" duration="216.00" routeLength="2034.31" waitingTime="16.00" waitingCount="2" stopTime="0.00" timeLoss="43.32" rerouteNo="1" devices="tripinfo_carIn12152:1 routing_carIn12152:1" vType="default_016" speedFactor="0.92" vaporized=""/>
    <tripinfo id="h8343c1:5" depart="57679.00" departLane="315358254#0_1" departPos="5.10" departSpeed="0.00" departDelay="0.60" arrival="57863.00" arrivalLane="-24634510#5_1" arrivalPos="236.88" arrivalSpeed="12.35" duration="184.00" routeLength="2056.84" waitingTime="25.00" waitingCount="1" stopTime="0.00" timeLoss="53.22" rerouteNo="1" devices="tripinfo_h8343c1:5 routing_h8343c1:5" vType="default_016" speedFactor="0.95" vaporized=""/>
    <tripinfo id="carIn129809:1" depart="57729.00" departLane="-447569998#1_1" departPos="5.10" departSpeed="0.00" departDelay="1.00" arrival="57872.00" arrivalLane="-315358244_1" arrivalPos="33.95" arrivalSpeed="12.10" duration="143.00" routeLength="706.49" waitingTime="69.00" waitingCount="1" stopTime="0.00" timeLoss="80.24" rerouteNo="1" devices="tripinfo_carIn129809:1 routing_carIn129809:1" vType="default_015" speedFactor="0.96" vaporized=""/>
    <tripinfo id="carIn73855:1" depart="57743.00" departLane="386687232#0_1" departPos="5.10" departSpeed="0.00" departDelay="0.50" arrival="57874.00" arrivalLane="-315358244_1" arrivalPos="33.95" arrivalSpeed="14.62" duration="131.00" routeLength="1157.39" waitingTime="34.00" waitingCount="2" stopTime="0.00" timeLoss="55.47" rerouteNo="1" devices="tripinfo_carIn73855:1 routing_carIn73855:1" vType="default_016" speedFactor="1.13" vaporized=""/>
    <tripinfo id="carIn46110:1" depart="57684.00" departLane="315358244_1" departPos="5.10" departSpeed="0.00" departDelay="1.20" arrival="57875.00" arrivalLane="32978638#0_1" arrivalPos="49.29" arrivalSpeed="12.76" duration="191.00" routeLength="1764.04" waitingTime="20.00" waitingCount="3" stopTime="0.00" timeLoss="60.88" rerouteNo="1" devices="tripinfo_carIn46110:1 routing_carIn46110:1" vType="default_016" speedFactor="0.99" vaporized=""/>
    <tripinfo id="carIn48184:1" depart="57613.00" departLane="-306240162#1_0" departPos="5.10" departSpeed="0.00" departDelay="0.70" arrival="57876.00" arrivalLane="386687235_1" arrivalPos="80.84" arrivalSpeed="10.13" duration="263.00" routeLength="2257.41" waitingTime="35.00" waitingCount="2" stopTime="0.00" timeLoss="62.55" rerouteNo="1" devices="tripinfo_carIn48184:1 routing_carIn48184:1" vType="default_016" speedFactor="0.74" vaporized=""/>
    <tripinfo id="carIn126378:1" depart="57746.00" departLane="386687232#0_1" departPos="5.10" departSpeed="0.00" departDelay="1.80" arrival="57877.00" arrivalLane="-315358244_1" arrivalPos="33.95" arrivalSpeed="12.95" duration="131.00" routeLength="1157.39" waitingTime="25.00" waitingCount="2" stopTime="0.00" timeLoss="43.02" rerouteNo="1" devices="tripinfo_carIn126378:1 routing_carIn126378:1" vType="default_016" speedFactor="0.95" vaporized=""/>
    <tripinfo id="h5216c1:1" depart="57664.00" departLane="224892339#0_1" departPos="5.10" departSpeed="0.00" departDelay="0.00" arrival="57878.00" arrivalLane="386687235_1" arrivalPos="80.84" arrivalSpeed="13.73" duration="214.00" routeLength="1823.78" waitingTime="23.00" waitingCount="3" stopTime="0.00" timeLoss="87.17" rerouteNo="1" devices="tripinfo_h5216c1:1 routing_h5216c1:1" vType="default_016" speedFactor="1.02" vaporized=""/>
    <tripinfo id="carIn12775:1" depart="57676.00" departLane="10425609#0_1" departPos="5.10" departSpeed="0.00" departDelay="0.60" arrival="57878.00" arrivalLane="18809673#0_1" arrivalPos="473.56" arrivalSpeed="11.21" duration="202.00" routeLength="1959.45" waitingTime="2.00" waitingCount="1" stopTime="0.00" timeLoss="33.30" rerouteNo="1" devices="tripinfo_carIn12775:1 routing_carIn12775:1" vType="default_016" speedFactor="0.86" vaporized=""/>
    <tripinfo id="h3536c1:1" depart="57767.00" departLane="-24634413#2_1" departPos="5.10" departSpeed="0.00" departDelay="0.00" arrival="57878.00" arrivalLane="32978638#0_1" arrivalPos="49.29" arrivalSpeed="12.31" duration="111.00" routeLength="953.61" waitingTime="0.00" waitingCount="0" stopTime="0.00" timeLoss="15.71" rerouteNo="1" devices="tripinfo_h3536c1:1 routing_h3536c1:1" vType="default_016" speedFactor="0.96" vaporized=""/>
    <tripinfo id="carIn82220:1" depart="57619.00" departLane="-306240162#1_0" departPos="5.10" departSpeed="0.00" departDelay="3.50" arrival="57880.00" arrivalLane="386687235_1" arrivalPos="80.84" arrivalSpeed="13.08" duration="261.00" routeLength="2257.41" waitingTime="43.00" waitingCount="5" stopTime="0.00" timeLoss="112.79" rerouteNo="1" devices="tripinfo_carIn82220:1 routing_carIn82220:1" vType="default_016" speedFactor="1.00" vaporized=""/>
    <tripinfo id="carIn8642:1" depart="57774.00" departLane="-447569998#1_1" departPos="5.10" departSpeed="0.00" departDelay="0.90" arrival="57884.00" arrivalLane="-315358244_1" arrivalPos="33.95" arrivalSpeed="14.60" duration="110.00" routeLength="706.49" waitingTime="39.00" waitingCount="2" stopTime="0.00" timeLoss="55.09" rerouteNo="1" devices="tripinfo_carIn8642:1 routing_carIn8642:1" vType="default_016" speedFactor="1.11" vaporized=""/>
    <tripinfo id="h13377c2:3" depart="57808.00" departLane="315358244_1" departPos="5.10" departSpeed="0.00" departDelay="4.60" arrival="57885.00" arrivalLane="447569997#1_1" arrivalPos="180.93" arrivalSpeed="8.83" duration="77.00" routeLength="718.04" waitingTime="5.00" waitingCount="1" stopTime="0.00" timeLoss="21.02" rerouteNo="1" devices="tripinfo_h13377c2:3 routing_h13377c2:3" vType="default_016" speedFactor="1.10" vaporized=""/>
    <tripinfo id="carIn50326:1" depart="57651.00" departLane="128361102#0_1" departPos="5.10" departSpeed="0.00" departDelay="0.30" arrival="57886.00" arrivalLane="18809673#0_1" arrivalPos="473.56" arrivalSpeed="12.02" duration="235.00" routeLength="1591.07" waitingTime="64.00" waitingCount="2" stopTime="0.00" timeLoss="91.95" rerouteNo="1" devices="tripinfo_carIn50326:1 routing_carIn50326:1" vType="default_016" speedFactor="0.91" vaporized=""/>
    <tripinfo id="carIn24709:1" depart="57753.00" departLane="266565295#5_1" departPos="5.10" departSpeed="0.00" departDelay="2.50" arrival="57890.00" arrivalLane="-24634506#2_1" arrivalPos="71.32" arrivalSpeed="14.26" duration="137.00" routeLength="1450.12" waitingTime="4.00" waitingCount="1" stopTime="0.00" timeLoss="24.97" rerouteNo="1" devices="tripinfo_carIn24709:1 routing_carIn24709:1" vType="default_016" speedFactor="1.06" vaporized=""/>
    <tripinfo id="h3864c1:3" depart="57678.00" departLane="24693977#1_1" departPos="5.10" departSpeed="0.00" departDelay="0.00" arrival="57891.00" arrivalLane="201956820_1" arrivalPos="48.33" arrivalSpeed="11.59" duration="213.00" routeLength="1574.85" waitingTime="41.00" waitingCount="3" stopTime="0.00" timeLoss="72.59" rerouteNo="1" devices="tripinfo_h3864c1:3 routing_h3864c1:3" vType="default_016" speedFactor="0.92" vaporized=""/>
    <tripinfo id="carIn77943:1" depart="57608.00" departLane="124812856#0_1" departPos="5.10" departSpeed="0.00" departDelay="2.50" arrival="57892.00" arrivalLane="-128361102#1_1" arrivalPos="274.68" arrivalSpeed="11.10" duration="284.00" routeLength="2232.46" waitingTime="49.00" waitingCount="3" stopTime="0.00" timeLoss="89.12" rerouteNo="1" devices="tripinfo_carIn77943:1 routing_carIn77943:1" vType="default_016" speedFactor="0.83" vaporized=""/>
    <tripinfo id="h6846c2:1" depart="57741.00" departLane="26677213#0_1" departPos="5.10" departSpeed="0.00" departDelay="0.00" arrival="57893.00" arrivalLane="386687235_1" arrivalPos="80.84" arrivalSpeed="15.29" duration="152.00" routeLength="1412.24" waitingTime="1.00" waitingCount="1" stopTime="0.00" timeLoss="26.79" rerouteNo="1" devices="tripinfo_h6846c2:1 routing_h6846c2:1" vType="default_016" speedFactor="1.11" vaporized=""/>
    <tripinfo id="randUni31145:1" depart="57814.00" departLane="10425609#0_1" departPos="5.10" departSpeed="0.00" departDelay="0.30" arrival="57895.00" arrivalLane="201956810_1" arrivalPos="71.65" arrivalSpeed="12.62" duration="81.00" routeLength="255.78" waitingTime="45.00" waitingCount="2" stopTime="0.00" timeLoss="59.42" rerouteNo="1" devices="tripinfo_randUni31145:1 routing_randUni31145:1" vType="random_016" speedFactor="0.92" vaporized=""/>
    <tripinfo id="randUni2407:1" depart="57820.00" departLane="10425609#0_1" departPos="5.10" departSpeed="0.00" departDelay="0.80" arrival="57897.00" arrivalLane="201956810_1" arrivalPos="71.65" arrivalSpeed="14.14" duration="77.00" routeLength="255.78" waitingTime="41.00" waitingCount="2" stopTime="0.00" timeLoss="57.85" rerouteNo="1" devices="tripinfo_randUni2407:1 routing_randUni2407:1" vType="random_016" speedFactor="1.05" vaporized=""/>
    <tripinfo id="carIn53503:1" depart="57765.00" departLane="-306240162#1_0" departPos="5.10" departSpeed="0.00" departDelay="4.40" arrival="57901.00" arrivalLane="24634510#6_1" arrivalPos="76.64" arrivalSpeed="13.16" duration="136.00" routeLength="1440.47" waitingTime="0.00" waitingCount="0" stopTime="0.00" timeLoss="34.38" rerouteNo="1" devices="tripinfo_carIn53503:1 routing_carIn53503:1" vType="default_016" speedFactor="0.98" vaporized=""/>
    <tripinfo id="carIn106665:1" depart="57659.00" departLane="266565295#5_1" departPos="5.10" departSpeed="0.00" departDelay="1.80" arrival="57903.00" arrivalLane="201238729#3_2" arrivalPos="431.02" arrivalSpeed="13.69" duration="244.00" routeLength="2840.38" waitingTime="28.00" waitingCount="1" stopTime="0.00" timeLoss="49.25" rerouteNo="1" devices="tripinfo_carIn106665:1 routing_carIn106665:1" vType="default_016" speedFactor="1.06" vaporized=""/>
    <tripinfo id="h17600c1:1" depart="57662.00" departLane="272042143_1" departPos="5.10" departSpeed="0.00" departDelay="0.30" arrival="57904.00" arrivalLane="201238729#3_1" arrivalPos="431.02" arrivalSpeed="12.62" duration="242.00" routeLength="2100.26" waitingTime="62.00" waitingCount="2" stopTime="0.00" timeLoss="84.08" rerouteNo="1" devices="tripinfo_h17600c1:1 routing_h17600c1:1" vType="default_016" speedFactor="0.96" vaporized=""/>
    <tripinfo id="carIn81860:1" depart="57712.00" departLane="128361102#0_1" departPos="5.10" departSpeed="0.00" departDelay="0.60" arrival="57906.00" arrivalLane="-24634517#17_1" arrivalPos="6.43" arrivalSpeed="7.21" duration="194.00" routeLength="1229.64" waitingTime="73.00" waitingCount="3" stopTime="0.00" timeLoss="107.43" rerouteNo="1" devices="tripinfo_carIn81860:1 routing_carIn81860:1" vType="default_016" speedFactor="1.05" vaporized=""/>
    <tripinfo id="carIn13443:1" depart="57729.00" departLane="272042143_1" departPos="5.10" departSpeed="0.00" departDelay="0.80" arrival="57906.00" arrivalLane="399835085#1_1" arrivalPos="212.23" arrivalSpeed="7.07" duration="177.00" routeLength="1757.45" waitingTime="6.00" waitingCount="1" stopTime="0.00" timeLoss="28.31" rerouteNo="1" devices="tripinfo_carIn13443:1 routing_carIn13443:1" vType="default_016" speedFactor="0.95" vaporized=""/>
    <tripinfo id="carIn48979:1" depart="57644.00" departLane="124812856#0_1" departPos="5.10" departSpeed="0.00" departDelay="15.10" arrival="57910.00" arrivalLane="306240162#0_0" arrivalPos="220.43" arrivalSpeed="18.34" duration="266.00" routeLength="3031.29" waitingTime="27.00" waitingCount="3" stopTime="0.00" timeLoss="95.72" rerouteNo="1" devices="tripinfo_carIn48979:1 routing_carIn48979:1" vType="default_016" speedFactor="1.16" vaporized=""/>
    <tripinfo id="carIn102915:1" depart="57643.00" departLane="128361102#0_1" departPos="5.10" departSpeed="0.00" departDelay="0.40" arrival="57913.00" arrivalLane="201956811#0_1" arrivalPos="40.40" arrivalSpeed="11.18" duration="270.00" routeLength="2067.33" waitingTime="56.00" waitingCount="2" stopTime="0.00" timeLoss="86.93" rerouteNo="1" devices="tripinfo_carIn102915:1 routing_carIn102915:1" vType="default_016" speedFactor="0.83" vaporized=""/>