<?xml version="1.0" encoding="UTF-8"?>

<!-- generated on 12/08/21 21:47:22 by Eclipse SUMO sumo Version 1.7.0
<configuration xmlns:xsi="http://www.w3.org/2001/XMLSchema-instance" xsi:noNamespaceSchemaLocation="http://sumo.dlr.de/xsd/sumoConfiguration.xsd">

    <input>
        <net-file value="C:\Users\longs\Desktop\RESCO-main\environments/cologne8/cologne8.net.xml"/>
        <route-files value="C:\Users\longs\Desktop\RESCO-main\environments/cologne8/cologne8.rou.xml"/>
    </input>

    <output>
        <tripinfo-output value="C:\Users\longs\Desktop\RESCO-main\logs\MAXPRESSURE-tr1-cologne8-0-mplight-wait\tripinfo_66.xml"/>
        <tripinfo-output.write-unfinished value="true"/>
    </output>

    <time>
        <begin value="25200"/>
        <end value="28800"/>
    </time>

    <processing>
        <time-to-teleport value="-1"/>
    </processing>

    <report>
        <no-warnings value="true"/>
        <no-step-log value="true"/>
    </report>

    <traci_server>
        <remote-port value="53856"/>
    </traci_server>

    <random_number>
        <random value="true"/>
    </random_number>

</configuration>
-->

<tripinfos xmlns:xsi="http://www.w3.org/2001/XMLSchema-instance" xsi:noNamespaceSchemaLocation="http://sumo.dlr.de/xsd/tripinfo_file.xsd">
    <tripinfo id="142890_415_0" depart="25218.00" departLane="-23283579#1_0" departPos="4.40" departSpeed="0.00" departDelay="0.00" arrival="25225.00" arrivalLane="23283579#1_0" arrivalPos="22.22" arrivalSpeed="10.41" duration="7.00" routeLength="44.72" waitingTime="0.00" waitingCount="0" stopTime="0.00" timeLoss="2.90" rerouteNo="0" devices="tripinfo_142890_415_0 routing_142890_415_0" vType="pkw" speedFactor="0.80" vaporized=""/>
    <tripinfo id="155570_420_0" depart="25200.00" departLane="-28675510#11_0" departPos="4.40" departSpeed="0.00" departDelay="0.00" arrival="25250.00" arrivalLane="28675510#7_0" arrivalPos="257.94" arrivalSpeed="11.46" duration="50.00" routeLength="516.12" waitingTime="0.00" waitingCount="0" stopTime="0.00" timeLoss="6.22" rerouteNo="0" devices="tripinfo_155570_420_0 routing_155570_420_0" vType="pkw" speedFactor="0.85" vaporized=""/>
    <tripinfo id="137959_412_0" depart="25209.00" departLane="-186623965#18_0" departPos="4.40" departSpeed="0.00" departDelay="0.00" arrival="25250.00" arrivalLane="-22917421#4_0" arrivalPos="96.26" arrivalSpeed="8.39" duration="41.00" routeLength="263.02" waitingTime="8.00" waitingCount="1" stopTime="0.00" timeLoss="16.57" rerouteNo="0" devices="tripinfo_137959_412_0 routing_137959_412_0" vType="pkw" speedFactor="1.01" vaporized=""/>
    <tripinfo id="137312_412_0" depart="25200.00" departLane="-23283579#1_0" departPos="4.40" departSpeed="0.00" departDelay="0.00" arrival="25251.00" arrivalLane="23283436_0" arrivalPos="65.76" arrivalSpeed="11.52" duration="51.00" routeLength="404.67" waitingTime="9.00" waitingCount="1" stopTime="0.00" timeLoss="18.79" rerouteNo="1" devices="tripinfo_137312_412_0 routing_137312_412_0" vType="pkw" speedFactor="0.91" vaporized=""/>
    <tripinfo id="114597_403_0" depart="25201.00" departLane="22917421#3_0" departPos="4.40" departSpeed="0.00" departDelay="0.00" arrival="25252.00" arrivalLane="-186623965#14_1" arrivalPos="159.69" arrivalSpeed="13.87" duration="51.00" routeLength="476.78" waitingTime="7.00" waitingCount="1" stopTime="0.00" timeLoss="14.35" rerouteNo="1" devices="tripinfo_114597_403_0 routing_114597_403_0" vType="pkw" speedFactor="1.08" vaporized=""/>
    <tripinfo id="134603_411_0" depart="25206.00" departLane="-28675510#11_0" departPos="4.40" departSpeed="0.00" departDelay="0.00" arrival="25252.00" arrivalLane="28675510#7_0" arrivalPos="257.94" arrivalSpeed="12.47" duration="46.00" routeLength="516.12" waitingTime="0.00" waitingCount="0" stopTime="0.00" timeLoss="5.88" rerouteNo="0" devices="tripinfo_134603_411_0 routing_134603_411_0" vType="pkw" speedFactor="0.93" vaporized=""/>
    <tripinfo id="140143_414_0" depart="25211.00" departLane="-28675510#11_0" departPos="4.40" departSpeed="0.00" departDelay="1.00" arrival="25255.00" arrivalLane="28675510#7_0" arrivalPos="257.94" arrivalSpeed="13.23" duration="44.00" routeLength="516.12" waitingTime="0.00" waitingCount="0" stopTime="0.00" timeLoss="7.13" rerouteNo="0" devices="tripinfo_140143_414_0 routing_140143_414_0" vType="pkw" speedFactor="1.01" vaporized=""/>
    <tripinfo id="138070_412_0" depart="25229.00" departLane="22917421#3_0" departPos="4.40" departSpeed="0.00" departDelay="0.00" arrival="25259.00" arrivalLane="186623965#17_0" arrivalPos="143.63" arrivalSpeed="14.70" duration="30.00" routeLength="257.42" waitingTime="0.00" waitingCount="0" stopTime="0.00" timeLoss="7.88" rerouteNo="0" devices="tripinfo_138070_412_0 routing_138070_412_0" vType="pkw" speedFactor="1.06" vaporized=""/>
    <tripinfo id="119181_405_0" depart="25226.00" departLane="186623965#9_0" departPos="4.40" departSpeed="0.00" departDelay="0.00" arrival="25262.00" arrivalLane="42925825#0_0" arrivalPos="254.17" arrivalSpeed="13.10" duration="36.00" routeLength="418.48" waitingTime="0.00" waitingCount="0" stopTime="0.00" timeLoss="3.65" rerouteNo="0" devices="tripinfo_119181_405_0 routing_119181_405_0" vType="pkw" speedFactor="0.95" vaporized=""/>
    <tripinfo id="153496_420_0" depart="25232.00" departLane="22917421#3_0" departPos="4.40" departSpeed="0.00" departDelay="0.00" arrival="25262.00" arrivalLane="186623965#17_0" arrivalPos="143.63" arrivalSpeed="12.39" duration="30.00" routeLength="257.42" waitingTime="0.00" waitingCount="0" stopTime="0.00" timeLoss="5.67" rerouteNo="0" devices="tripinfo_153496_420_0 routing_153496_420_0" vType="pkw" speedFactor="0.98" vaporized=""/>
    <tripinfo id="133416_410_0" depart="25228.00" departLane="186623965#9_0" departPos="4.40" departSpeed="0.00" departDelay="0.00" arrival="25263.00" arrivalLane="42925825#0_0" arrivalPos="254.17" arrivalSpeed="14.51" duration="35.00" routeLength="418.48" waitingTime="0.00" waitingCount="0" stopTime="0.00" timeLoss="9.78" rerouteNo="0" devices="tripinfo_133416_410_0 routing_133416_410_0" vType="pkw" speedFactor="1.20" vaporized=""/>
    <tripinfo id="140525_414_0" depart="25221.00" departLane="186623965#9_0" departPos="4.40" departSpeed="0.00" departDelay="0.00" arrival="25267.00" arrivalLane="186623965#17_0" arrivalPos="143.63" arrivalSpeed="12.36" duration="46.00" routeLength="527.61" waitingTime="0.00" waitingCount="0" stopTime="0.00" timeLoss="4.65" rerouteNo="1" devices="tripinfo_140525_414_0 routing_140525_414_0" vType="pkw" speedFactor="0.92" vaporized=""/>
    <tripinfo id="135663_411_0" depart="25216.00" departLane="-28675510#11_0" departPos="4.40" departSpeed="0.00" departDelay="2.00" arrival="25268.00" arrivalLane="28675510#7_0" arrivalPos="257.94" arrivalSpeed="12.86" duration="52.00" routeLength="516.12" waitingTime="0.00" waitingCount="0" stopTime="0.00" timeLoss="11.61" rerouteNo="0" devices="tripinfo_135663_411_0 routing_135663_411_0" vType="pkw" speedFactor="0.93" vaporized=""/>
    <tripinfo id="149045_417_0" depart="25219.00" departLane="-28675510#11_0" departPos="4.40" departSpeed="0.00" departDelay="2.00" arrival="25270.00" arrivalLane="28675510#7_0" arrivalPos="257.94" arrivalSpeed="12.33" duration="51.00" routeLength="516.12" waitingTime="0.00" waitingCount="0" stopTime="0.00" timeLoss="9.76" rerouteNo="0" devices="tripinfo_149045_417_0 routing_149045_417_0" vType="pkw" speedFactor="0.91" vaporized=""/>
    <tripinfo id="155353_420_0" depart="25234.00" departLane="22917421#3_0" departPos="4.40" departSpeed="0.00" departDelay="0.00" arrival="25279.00" arrivalLane="186623965#17_0" arrivalPos="143.63" arrivalSpeed="12.06" duration="45.00" routeLength="257.42" waitingTime="12.00" waitingCount="1" stopTime="0.00" timeLoss="18.79" rerouteNo="0" devices="tripinfo_155353_420_0 routing_155353_420_0" vType="pkw" speedFactor="0.90" vaporized=""/>
    <tripinfo id="134428_411_0" depart="25237.00" departLane="-28675510#11_0" departPos="4.40" departSpeed="0.00" departDelay="0.00" arrival="25279.00" arrivalLane="28675510#7_0" arrivalPos="257.94" arrivalSpeed="14.19" duration="42.00" routeLength="516.12" waitingTime="0.00" waitingCount="0" stopTime="0.00" timeLoss="6.11" rerouteNo="0" devices="tripinfo_134428_411_0 routing_134428_411_0" vType="pkw" speedFactor="1.04" vaporized=""/>
    <tripinfo id="161942_421_0" depart="25233.00" departLane="-42925825#2_0" departPos="4.40" departSpeed="0.00" departDelay="0.00" arrival="25285.00" arrivalLane="42925825#0_0" arrivalPos="254.17" arrivalSpeed="13.24" duration="52.00" routeLength="508.64" waitingTime="5.00" waitingCount="1" stopTime="0.00" timeLoss="14.39" rerouteNo="0" devices="tripinfo_161942_421_0 routing_161942_421_0" vType="pkw" speedFactor="0.99" vaporized=""/>
    <tripinfo id="111571_401_0" depart="25267.00" departLane="-353069169#0_0" departPos="4.40" departSpeed="0.00" departDelay="0.00" arrival="25296.00" arrivalLane="24487264_0" arrivalPos="166.35" arrivalSpeed="12.31" duration="29.00" routeLength="286.19" waitingTime="0.00" waitingCount="0" stopTime="0.00" timeLoss="5.69" rerouteNo="1" devices="tripinfo_111571_401_0 routing_111571_401_0" vType="pkw" speedFactor="0.93" vaporized=""/>
    <tripinfo id="76230_386_0" depart="25204.00" departLane="-23283579#1_0" departPos="4.40" departSpeed="0.00" departDelay="0.00" arrival="25298.00" arrivalLane="297047309#0_0" arrivalPos="91.17" arrivalSpeed="14.10" duration="94.00" routeLength="656.20" waitingTime="15.00" waitingCount="2" stopTime="0.00" timeLoss="32.43" rerouteNo="1" devices="tripinfo_76230_386_0 routing_76230_386_0" vType="pkw" speedFactor="1.07" vaporized=""/>
    <tripinfo id="118788_405_0" depart="25247.00" departLane="22917421#3_0" departPos="4.40" departSpeed="0.00" departDelay="0.00" arrival="25299.00" arrivalLane="186623965#17_0" arrivalPos="143.63" arrivalSpeed="12.62" duration="52.00" routeLength="257.42" waitingTime="13.00" waitingCount="2" stopTime="0.00" timeLoss="26.20" rerouteNo="0" devices="tripinfo_118788_405_0 routing_118788_405_0" vType="pkw" speedFactor="0.92" vaporized=""/>
    <tripinfo id="113370_402_0" depart="25249.00" departLane="186623965#9_0" departPos="4.40" departSpeed="0.00" departDelay="0.00" arrival="25300.00" arrivalLane="42925825#0_0" arrivalPos="254.17" arrivalSpeed="10.31" duration="51.00" routeLength="418.48" waitingTime="3.00" waitingCount="1" stopTime="0.00" timeLoss="12.90" rerouteNo="0" devices="tripinfo_113370_402_0 routing_113370_402_0" vType="pkw" speedFactor="0.81" vaporized=""/>
    <tripinfo id="144617_416_0" depart="25256.00" departLane="22917421#3_0" departPos="4.40" departSpeed="0.00" departDelay="0.00" arrival="25300.00" arrivalLane="186623965#17_0" arrivalPos="143.63" arrivalSpeed="13.42" duration="44.00" routeLength="257.42" waitingTime="8.00" waitingCount="1" stopTime="0.00" timeLoss="21.23" rerouteNo="0" devices="tripinfo_144617_416_0 routing_144617_416_0" vType="pkw" speedFactor="1.02" vaporized=""/>
    <tripinfo id="145282_416_0" depart="25259.00" departLane="186623965#9_0" departPos="4.40" departSpeed="0.00" departDelay="0.00" arrival="25301.00" arrivalLane="42925825#0_0" arrivalPos="254.17" arrivalSpeed="12.80" duration="42.00" routeLength="418.48" waitingTime="0.00" waitingCount="0" stopTime="0.00" timeLoss="10.30" rerouteNo="0" devices="tripinfo_145282_416_0 routing_145282_416_0" vType="pkw" speedFactor="0.96" vaporized=""/>
    <tripinfo id="162497_421_0" depart="25273.00" departLane="22917421#3_0" departPos="4.40" departSpeed="0.00" departDelay="0.00" arrival="25302.00" arrivalLane="186623965#17_0" arrivalPos="143.63" arrivalSpeed="12.77" duration="29.00" routeLength="257.42" waitingTime="0.00" waitingCount="0" stopTime="0.00" timeLoss="5.53" rerouteNo="0" devices="tripinfo_162497_421_0 routing_162497_421_0" vType="pkw" speedFactor="1.00" vaporized=""/>
    <tripinfo id="141355_415_0" depart="25232.00" departLane="-186623965#18_0" departPos="4.40" departSpeed="0.00" departDelay="0.00" arrival="25303.00" arrivalLane="42925825#0_0" arrivalPos="254.17" arrivalSpeed="12.85" duration="71.00" routeLength="625.62" waitingTime="6.00" waitingCount="2" stopTime="0.00" timeLoss="25.07" rerouteNo="1" devices="tripinfo_141355_415_0 routing_141355_415_0" vType="pkw" speedFactor="1.00" vaporized=""/>
    <tripinfo id="131071_409_0" depart="25236.00" departLane="-186623965#18_0" departPos="4.40" departSpeed="0.00" departDelay="0.00" arrival="25304.00" arrivalLane="42925825#0_0" arrivalPos="254.17" arrivalSpeed="13.66" duration="68.00" routeLength="625.62" waitingTime="1.00" waitingCount="1" stopTime="0.00" timeLoss="27.54" rerouteNo="1" devices="tripinfo_131071_409_0 routing_131071_409_0" vType="pkw" speedFactor="1.12" vaporized=""/>
    <tripinfo id="131243_409_0" depart="25248.00" departLane="-186623965#18_0" departPos="4.40" departSpeed="0.00" departDelay="0.00" arrival="25305.00" arrivalLane="-186623965#14_0" arrivalPos="159.69" arrivalSpeed="13.29" duration="57.00" routeLength="528.65" waitingTime="8.00" waitingCount="1" stopTime="0.00" timeLoss="18.71" rerouteNo="1" devices="tripinfo_131243_409_0 routing_131243_409_0" vType="pkw" speedFactor="1.01" vaporized=""/>
    <tripinfo id="126900_407_0" depart="25239.00" departLane="-186623965#18_0" departPos="4.40" departSpeed="0.00" departDelay="0.00" arrival="25306.00" arrivalLane="42925825#0_0" arrivalPos="254.17" arrivalSpeed="14.35" duration="67.00" routeLength="625.62" waitingTime="0.00" waitingCount="0" stopTime="0.00" timeLoss="24.98" rerouteNo="1" devices="tripinfo_126900_407_0 routing_126900_407_0" vType="pkw" speedFactor="1.09" vaporized=""/>
    <tripinfo id="150593_418_0" depart="25297.00" departLane="22959552#0_0" departPos="4.40" departSpeed="0.00" departDelay="0.00" arrival="25310.00" arrivalLane="22959552#0_0" arrivalPos="91.39" arrivalSpeed="7.24" duration="13.00" routeLength="86.99" waitingTime="0.00" waitingCount="0" stopTime="0.00" timeLoss="2.47" rerouteNo="1" devices="tripinfo_150593_418_0 routing_150593_418_0" vType="pkw" speedFactor="1.00" vaporized=""/>
    <tripinfo id="163799_422_0" depart="25257.00" departLane="-186623965#18_0" departPos="4.40" departSpeed="0.00" departDelay="2.00" arrival="25311.00" arrivalLane="-22917421#4_0" arrivalPos="96.26" arrivalSpeed="7.09" duration="54.00" routeLength="263.02" waitingTime="11.00" waitingCount="2" stopTime="0.00" timeLoss="27.65" rerouteNo="0" devices="tripinfo_163799_422_0 routing_163799_422_0" vType="pkw" speedFactor="0.91" vaporized=""/>
    <tripinfo id="127809_407_0" depart="25257.00" departLane="-23283579#1_0" departPos="4.40" departSpeed="0.00" departDelay="0.00" arrival="25319.00" arrivalLane="23285888#0_0" arrivalPos="109.58" arrivalSpeed="7.47" duration="62.00" routeLength="410.95" waitingTime="3.00" waitingCount="1" stopTime="0.00" timeLoss="17.73" rerouteNo="1" devices="tripinfo_127809_407_0 routing_127809_407_0" vType="pkw" speedFactor="1.01" vaporized=""/>
    <tripinfo id="110248_401_0" depart="25207.00" departLane="-23283579#1_0" departPos="4.40" departSpeed="0.00" departDelay="1.00" arrival="25322.00" arrivalLane="297047309#0_0" arrivalPos="91.17" arrivalSpeed="10.42" duration="115.00" routeLength="656.20" waitingTime="16.00" waitingCount="2" stopTime="0.00" timeLoss="32.78" rerouteNo="1" devices="tripinfo_110248_401_0 routing_110248_401_0" vType="pkw" speedFactor="0.80" vaporized=""/>
    <tripinfo id="166162_424_0" depart="25233.00" departLane="22959550#0_0" departPos="4.40" departSpeed="0.00" departDelay="0.00" arrival="25322.00" arrivalLane="28675510#7_0" arrivalPos="257.94" arrivalSpeed="13.48" duration="89.00" routeLength="903.30" waitingTime="0.00" waitingCount="0" stopTime="0.00" timeLoss="7.78" rerouteNo="1" devices="tripinfo_166162_424_0 routing_166162_424_0" vType="pkw" speedFactor="1.04" vaporized=""/>
    <tripinfo id="126698_407_0" depart="25241.00" departLane="-186623965#18_0" departPos="4.40" departSpeed="0.00" departDelay="0.00" arrival="25323.00" arrivalLane="42925825#0_0" arrivalPos="254.17" arrivalSpeed="9.78" duration="82.00" routeLength="625.62" waitingTime="10.00" waitingCount="1" stopTime="0.00" timeLoss="24.20" rerouteNo="1" devices="tripinfo_126698_407_0 routing_126698_407_0" vType="pkw" speedFactor="0.78" vaporized=""/>
    <tripinfo id="161216_421_0" depart="25251.00" departLane="-186623965#18_0" departPos="4.40" departSpeed="0.00" departDelay="3.00" arrival="25324.00" arrivalLane="42925825#0_0" arrivalPos="254.17" arrivalSpeed="13.10" duration="73.00" routeLength="625.62" waitingTime="6.00" waitingCount="1" stopTime="0.00" timeLoss="27.17" rerouteNo="1" devices="tripinfo_161216_421_0 routing_161216_421_0" vType="pkw" speedFactor="0.98" vaporized=""/>
    <tripinfo id="159622_421_0" depart="25254.00" departLane="-186623965#18_0" departPos="4.40" departSpeed="0.00" departDelay="3.00" arrival="25326.00" arrivalLane="42925825#0_0" arrivalPos="254.17" arrivalSpeed="12.50" duration="72.00" routeLength="625.62" waitingTime="4.00" waitingCount="1" stopTime="0.00" timeLoss="23.30" rerouteNo="1" devices="tripinfo_159622_421_0 routing_159622_421_0" vType="pkw" speedFactor="0.93" vaporized=""/>
    <tripinfo id="121484_406_0" depart="25268.00" departLane="-23283579#1_0" departPos="4.40" departSpeed="0.00" departDelay="0.00" arrival="25326.00" arrivalLane="133081987#3_0" arrivalPos="99.94" arrivalSpeed="11.28" duration="58.00" routeLength="434.85" waitingTime="11.00" waitingCount="1" stopTime="0.00" timeLoss="22.71" rerouteNo="1" devices="tripinfo_121484_406_0 routing_121484_406_0" vType="pkw" speedFactor="0.90" vaporized=""/>
    <tripinfo id="156485_420_0" depart="25205.00" departLane="22959552#0_0" departPos="4.40" departSpeed="0.00" departDelay="0.00" arrival="25331.00" arrivalLane="28675510#7_0" arrivalPos="257.94" arrivalSpeed="12.30" duration="126.00" routeLength="1112.54" waitingTime="0.00" waitingCount="0" stopTime="0.00" timeLoss="10.69" rerouteNo="1" devices="tripinfo_156485_420_0 routing_156485_420_0" vType="pkw" speedFactor="0.90" vaporized=""/>
    <tripinfo id="147744_416_0" depart="25272.00" departLane="-186623965#18_0" departPos="4.40" departSpeed="0.00" departDelay="0.00" arrival="25331.00" arrivalLane="42925825#0_0" arrivalPos="254.17" arrivalSpeed="15.42" duration="59.00" routeLength="625.62" waitingTime="6.00" waitingCount="1" stopTime="0.00" timeLoss="18.87" rerouteNo="1" devices="tripinfo_147744_416_0 routing_147744_416_0" vType="pkw" speedFactor="1.13" vaporized=""/>
    <tripinfo id="152801_419_0" depart="25299.00" departLane="-297047307_0" departPos="4.40" departSpeed="0.00" departDelay="0.00" arrival="25334.00" arrivalLane="297047309#0_0" arrivalPos="91.17" arrivalSpeed="14.24" duration="35.00" routeLength="439.92" waitingTime="0.00" waitingCount="0" stopTime="0.00" timeLoss="5.20" rerouteNo="1" devices="tripinfo_152801_419_0 routing_152801_419_0" vType="pkw" speedFactor="1.07" vaporized=""/>
    <tripinfo id="163025_422_0" depart="25246.00" departLane="-28675510#11_0" departPos="4.40" departSpeed="0.00" departDelay="0.00" arrival="25337.00" arrivalLane="8716807#1_0" arrivalPos="110.75" arrivalSpeed="7.55" duration="91.00" routeLength="862.02" waitingTime="1.00" waitingCount="1" stopTime="0.00" timeLoss="11.93" rerouteNo="1" devices="tripinfo_163025_422_0 routing_163025_422_0" vType="pkw" speedFactor="0.94" vaporized=""/>
    <tripinfo id="171184_426_0" depart="25326.00" departLane="133081987#0_0" departPos="4.40" departSpeed="0.00" departDelay="0.00" arrival="25343.00" arrivalLane="23283436_0" arrivalPos="65.76" arrivalSpeed="11.41" duration="17.00" routeLength="154.99" waitingTime="0.00" waitingCount="0" stopTime="0.00" timeLoss="4.40" rerouteNo="0" devices="tripinfo_171184_426_0 routing_171184_426_0" vType="pkw" speedFactor="0.89" vaporized=""/>
    <tripinfo id="166776_424_0" depart="25208.00" departLane="-28675510#11_0" departPos="4.40" departSpeed="0.00" departDelay="0.00" arrival="25345.00" arrivalLane="-186623965#14_0" arrivalPos="159.69" arrivalSpeed="13.13" duration="137.00" routeLength="1202.17" waitingTime="5.00" waitingCount="1" stopTime="0.00" timeLoss="22.44" rerouteNo="1" devices="tripinfo_166776_424_0 routing_166776_424_0" vType="pkw" speedFactor="0.99" vaporized=""/>
    <tripinfo id="91556_392_0" depart="25270.00" departLane="-23283579#1_0" departPos="4.40" departSpeed="0.00" departDelay="0.00" arrival="25345.00" arrivalLane="23840972_0" arrivalPos="97.66" arrivalSpeed="6.78" duration="75.00" routeLength="525.30" waitingTime="10.00" waitingCount="1" stopTime="0.00" timeLoss="22.57" rerouteNo="1" devices="tripinfo_91556_392_0 routing_91556_392_0" vType="pkw" speedFactor="0.89" vaporized=""/>
    <tripinfo id="145512_416_0" depart="25308.00" departLane="22917421#3_0" departPos="4.40" departSpeed="0.00" departDelay="0.00" arrival="25347.00" arrivalLane="186623965#17_0" arrivalPos="143.63" arrivalSpeed="13.42" duration="39.00" routeLength="257.42" waitingTime="8.00" waitingCount="1" stopTime="0.00" timeLoss="16.16" rerouteNo="0" devices="tripinfo_145512_416_0 routing_145512_416_0" vType="pkw" speedFactor="1.02" vaporized=""/>
    <tripinfo id="163043_422_0" depart="25214.00" departLane="-28675510#11_0" departPos="4.40" departSpeed="0.00" departDelay="2.00" arrival="25348.00" arrivalLane="8716827#0_0" arrivalPos="109.12" arrivalSpeed="5.66" duration="134.00" routeLength="1154.53" waitingTime="0.00" waitingCount="0" stopTime="0.00" timeLoss="11.46" rerouteNo="1" devices="tripinfo_163043_422_0 routing_163043_422_0" vType="pkw" speedFactor="0.73" vaporized=""/>
    <tripinfo id="131237_409_0" depart="25228.00" departLane="-186623965#18_0" departPos="4.40" departSpeed="0.00" departDelay="0.00" arrival="25349.00" arrivalLane="297047309#0_0" arrivalPos="91.17" arrivalSpeed="14.98" duration="121.00" routeLength="1417.37" waitingTime="8.00" waitingCount="1" stopTime="0.00" timeLoss="26.17" rerouteNo="1" devices="tripinfo_131237_409_0 routing_131237_409_0" vType="pkw" speedFactor="1.08" vaporized=""/>
    <tripinfo id="152887_419_0" depart="25229.00" departLane="-28675510#11_0" departPos="4.40" departSpeed="0.00" departDelay="0.00" arrival="25350.00" arrivalLane="8716827#0_0" arrivalPos="109.12" arrivalSpeed="8.94" duration="121.00" routeLength="1154.53" waitingTime="0.00" waitingCount="0" stopTime="0.00" timeLoss="42.33" rerouteNo="1" devices="tripinfo_152887_419_0 routing_152887_419_0" vType="pkw" speedFactor="1.14" vaporized=""/>
    <tripinfo id="124742_406_0" depart="25237.00" departLane="22917421#3_0" departPos="4.40" departSpeed="0.00" departDelay="1.00" arrival="25356.00" arrivalLane="28675493_0" arrivalPos="90.85" arrivalSpeed="11.34" duration="119.00" routeLength="1141.94" waitingTime="10.00" waitingCount="1" stopTime="0.00" timeLoss="22.06" rerouteNo="1" devices="tripinfo_124742_406_0 routing_124742_406_0" vType="pkw" speedFactor="0.90" vaporized=""/>
    <tripinfo id="158885_421_0" depart="25220.00" departLane="22917421#3_0" departPos="4.40" departSpeed="0.00" departDelay="0.00" arrival="25357.00" arrivalLane="28675510#7_0" arrivalPos="257.94" arrivalSpeed="12.39" duration="137.00" routeLength="937.03" waitingTime="17.00" waitingCount="2" stopTime="0.00" timeLoss="33.68" rerouteNo="1" devices="tripinfo_158885_421_0 routing_158885_421_0" vType="pkw" speedFactor="0.96" vaporized=""/>
    <tripinfo id="144017_416_0" depart="25348.00" departLane="-353069169#0_0" departPos="4.40" departSpeed="0.00" departDelay="0.00" arrival="25366.00" arrivalLane="323416262_0" arrivalPos="87.54" arrivalSpeed="15.98" duration="18.00" routeLength="175.35" waitingTime="0.00" waitingCount="0" stopTime="0.00" timeLoss="6.99" rerouteNo="0" devices="tripinfo_144017_416_0 routing_144017_416_0" vType="pkw" speedFactor="1.18" vaporized=""/>
    <tripinfo id="146111_416_0" depart="25221.00" departLane="-28675510#11_0" departPos="4.40" departSpeed="0.00" departDelay="0.00" arrival="25367.00" arrivalLane="-186623965#14_0" arrivalPos="159.69" arrivalSpeed="12.58" duration="146.00" routeLength="1202.17" waitingTime="1.00" waitingCount="1" stopTime="0.00" timeLoss="22.74" rerouteNo="1" devices="tripinfo_146111_416_0 routing_146111_416_0" vType="pkw" speedFactor="0.92" vaporized=""/>
    <tripinfo id="154212_420_0" depart="25232.00" departLane="-28675510#11_0" departPos="4.40" departSpeed="0.00" departDelay="0.00" arrival="25367.00" arrivalLane="-186623965#14_1" arrivalPos="159.69" arrivalSpeed="14.52" duration="135.00" routeLength="1202.17" waitingTime="0.00" waitingCount="0" stopTime="0.00" timeLoss="27.43" rerouteNo="1" devices="tripinfo_154212_420_0 routing_154212_420_0" vType="pkw" speedFactor="1.06" vaporized=""/>
    <tripinfo id="142950_415_0" depart="25274.00" departLane="-28675510#11_0" departPos="4.40" departSpeed="0.00" departDelay="0.00" arrival="25369.00" arrivalLane="155723703#0_0" arrivalPos="92.60" arrivalSpeed="13.04" duration="95.00" routeLength="1137.50" waitingTime="0.00" waitingCount="0" stopTime="0.00" timeLoss="9.05" rerouteNo="1" devices="tripinfo_142950_415_0 routing_142950_415_0" vType="pkw" speedFactor="0.96" vaporized=""/>
    <tripinfo id="158136_421_0" depart="25240.00" departLane="28675510#1_0" departPos="4.40" departSpeed="0.00" departDelay="0.00" arrival="25370.00" arrivalLane="323416262_0" arrivalPos="87.54" arrivalSpeed="11.78" duration="130.00" routeLength="1126.93" waitingTime="1.00" waitingCount="1" stopTime="0.00" timeLoss="19.20" rerouteNo="1" devices="tripinfo_158136_421_0 routing_158136_421_0" vType="pkw" speedFactor="0.94" vaporized=""/>
    <tripinfo id="146152_416_0" depart="25210.00" departLane="25166682#0_0" departPos="4.40" departSpeed="0.00" departDelay="0.00" arrival="25371.00" arrivalLane="28675510#7_0" arrivalPos="257.94" arrivalSpeed="10.57" duration="161.00" routeLength="1219.50" waitingTime="4.00" waitingCount="1" stopTime="0.00" timeLoss="24.77" rerouteNo="1" devices="tripinfo_146152_416_0 routing_146152_416_0" vType="pkw" speedFactor="0.79" vaporized=""/>
    <tripinfo id="117517_404_0" depart="25224.00" departLane="-28675510#11_0" departPos="4.40" departSpeed="0.00" departDelay="0.00" arrival="25371.00" arrivalLane="-186623965#14_0" arrivalPos="159.69" arrivalSpeed="11.98" duration="147.00" routeLength="1202.17" waitingTime="0.00" waitingCount="0" stopTime="0.00" timeLoss="16.10" rerouteNo="1" devices="tripinfo_117517_404_0 routing_117517_404_0" vType="pkw" speedFactor="0.87" vaporized=""/>
    <tripinfo id="140363_414_0" depart="25313.00" departLane="22917421#3_0" departPos="4.40" departSpeed="0.00" departDelay="0.00" arrival="25371.00" arrivalLane="-186623965#14_1" arrivalPos="159.69" arrivalSpeed="12.92" duration="58.00" routeLength="476.78" waitingTime="5.00" waitingCount="1" stopTime="0.00" timeLoss="16.12" rerouteNo="1" devices="tripinfo_140363_414_0 routing_140363_414_0" vType="pkw" speedFactor="0.94" vaporized=""/>
    <tripinfo id="162890_422_0" depart="25264.00" departLane="8716807#1_0" departPos="4.40" departSpeed="0.00" departDelay="0.00" arrival="25372.00" arrivalLane="28675510#7_0" arrivalPos="257.94" arrivalSpeed="12.86" duration="108.00" routeLength="973.61" waitingTime="4.00" waitingCount="1" stopTime="0.00" timeLoss="28.11" rerouteNo="1" devices="tripinfo_162890_422_0 routing_162890_422_0" vType="pkw" speedFactor="1.08" vaporized=""/>
    <tripinfo id="122140_406_0" depart="25244.00" departLane="22917421#3_0" departPos="4.40" departSpeed="0.00" departDelay="0.00" arrival="25374.00" arrivalLane="23648008#2_0" arrivalPos="175.60" arrivalSpeed="13.60" duration="130.00" routeLength="1356.05" waitingTime="5.00" waitingCount="1" stopTime="0.00" timeLoss="26.25" rerouteNo="1" devices="tripinfo_122140_406_0 routing_122140_406_0" vType="pkw" speedFactor="0.99" vaporized=""/>
    <tripinfo id="84611_390_0" depart="25261.00" departLane="-23283579#1_0" departPos="4.40" departSpeed="0.00" departDelay="0.00" arrival="25374.00" arrivalLane="-23648008#0_0" arrivalPos="75.90" arrivalSpeed="13.81" duration="113.00" routeLength="782.02" waitingTime="12.00" waitingCount="2" stopTime="0.00" timeLoss="43.38" rerouteNo="1" devices="tripinfo_84611_390_0 routing_84611_390_0" vType="pkw" speedFactor="1.08" vaporized=""/>
    <tripinfo id="174787_427_0" depart="25287.00" departLane="22959550#3_0" departPos="4.40" departSpeed="0.00" departDelay="0.00" arrival="25374.00" arrivalLane="28675510#7_0" arrivalPos="257.94" arrivalSpeed="13.82" duration="87.00" routeLength="757.45" waitingTime="3.00" waitingCount="1" stopTime="0.00" timeLoss="19.70" rerouteNo="1" devices="tripinfo_174787_427_0 routing_174787_427_0" vType="pkw" speedFactor="1.00" vaporized=""/>
    <tripinfo id="148039_417_0" depart="25331.00" departLane="-186623965#16_0" departPos="4.40" departSpeed="0.00" departDelay="0.00" arrival="25375.00" arrivalLane="186623965#17_1" arrivalPos="143.63" arrivalSpeed="14.23" duration="44.00" routeLength="545.21" waitingTime="0.00" waitingCount="0" stopTime="0.00" timeLoss="7.28" rerouteNo="1" devices="tripinfo_148039_417_0 routing_148039_417_0" vType="pkw" speedFactor="1.08" vaporized=""/>
    <tripinfo id="129175_408_0" depart="25255.00" departLane="-23283579#1_0" departPos="4.40" departSpeed="0.00" departDelay="0.00" arrival="25377.00" arrivalLane="323450710#0_0" arrivalPos="95.59" arrivalSpeed="11.87" duration="122.00" routeLength="843.12" waitingTime="15.00" waitingCount="2" stopTime="0.00" timeLoss="32.07" rerouteNo="1" devices="tripinfo_129175_408_0 routing_129175_408_0" vType="pkw" speedFactor="0.88" vaporized=""/>
    <tripinfo id="146391_416_0" depart="25313.00" departLane="-28675510#0_0" departPos="4.40" departSpeed="0.00" departDelay="0.00" arrival="25379.00" arrivalLane="28675510#7_0" arrivalPos="257.94" arrivalSpeed="12.11" duration="66.00" routeLength="752.27" waitingTime="0.00" waitingCount="0" stopTime="0.00" timeLoss="6.86" rerouteNo="1" devices="tripinfo_146391_416_0 routing_146391_416_0" vType="pkw" speedFactor="0.92" vaporized=""/>