<?xml version="1.0" encoding="UTF-8"?>

<!-- generated on 12/21/21 14:12:12 by Eclipse SUMO sumo Version 1.7.0
<configuration xmlns:xsi="http://www.w3.org/2001/XMLSchema-instance" xsi:noNamespaceSchemaLocation="http://sumo.dlr.de/xsd/sumoConfiguration.xsd">

    <input>
        <net-file value="C:\Users\longs\Desktop\RESCO-main\environments\grid4x4\grid4x4.net.xml"/>
        <route-files value="C:\Users\longs\Desktop\RESCO-main\environments\grid4x4\grid4x4_25.rou.xml"/>
    </input>

    <output>
        <tripinfo-output value="C:\Users\longs\Desktop\RESCO-main\logs\IDQN-tr1-grid4x4-0-drqlong-delaydiff_pressure0\tripinfo_25.xml"/>
        <tripinfo-output.write-unfinished value="true"/>
    </output>

    <processing>
        <time-to-teleport value="-1"/>
    </processing>

    <report>
        <no-warnings value="true"/>
        <no-step-log value="true"/>
    </report>

    <traci_server>
        <remote-port value="62390"/>
    </traci_server>

    <random_number>
        <random value="true"/>
    </random_number>

</configuration>
-->

<tripinfos xmlns:xsi="http://www.w3.org/2001/XMLSchema-instance" xsi:noNamespaceSchemaLocation="http://sumo.dlr.de/xsd/tripinfo_file.xsd">
    <tripinfo id="0" depart="5.00" departLane="bottom3D0_0" departPos="5.10" departSpeed="0.00" departDelay="0.00" arrival="60.00" arrivalLane="D0right0_0" arrivalPos="286.40" arrivalSpeed="11.75" duration="55.00" routeLength="576.73" waitingTime="1.00" waitingCount="1" stopTime="0.00" timeLoss="9.26" rerouteNo="0" devices="tripinfo_0" vType="DEFAULT_VEHTYPE" speedFactor="0.93" vaporized=""/>
    <tripinfo id="7" depart="43.00" departLane="bottom3D0_0" departPos="5.10" departSpeed="0.00" departDelay="0.00" arrival="118.00" arrivalLane="C0bottom2_0" arrivalPos="286.40" arrivalSpeed="12.93" duration="75.00" routeLength="894.86" waitingTime="0.00" waitingCount="0" stopTime="0.00" timeLoss="9.52" rerouteNo="0" devices="tripinfo_7" vType="DEFAULT_VEHTYPE" speedFactor="1.00" vaporized=""/>
    <tripinfo id="1" depart="17.00" departLane="right3D3_0" departPos="5.10" departSpeed="0.00" departDelay="0.00" arrival="124.00" arrivalLane="B3top1_0" arrivalPos="286.40" arrivalSpeed="14.25" duration="107.00" routeLength="1177.07" waitingTime="4.00" waitingCount="2" stopTime="0.00" timeLoss="27.40" rerouteNo="0" devices="tripinfo_1" vType="DEFAULT_VEHTYPE" speedFactor="1.08" vaporized=""/>
    <tripinfo id="12" depart="71.00" departLane="bottom1B0_0" departPos="5.10" departSpeed="0.00" departDelay="0.00" arrival="156.00" arrivalLane="C0bottom2_0" arrivalPos="286.40" arrivalSpeed="11.66" duration="85.00" routeLength="858.56" waitingTime="1.00" waitingCount="1" stopTime="0.00" timeLoss="13.72" rerouteNo="0" devices="tripinfo_12" vType="DEFAULT_VEHTYPE" speedFactor="0.89" vaporized=""/>
    <tripinfo id="2" depart="25.00" departLane="top3D3_0" departPos="5.10" departSpeed="0.00" departDelay="0.00" arrival="185.00" arrivalLane="A3top0_0" arrivalPos="286.40" arrivalSpeed="13.56" duration="160.00" routeLength="1461.60" waitingTime="33.00" waitingCount="3" stopTime="0.00" timeLoss="60.31" rerouteNo="0" devices="tripinfo_2" vType="DEFAULT_VEHTYPE" speedFactor="1.07" vaporized=""/>
    <tripinfo id="14" depart="77.00" departLane="left2A2_0" departPos="5.10" departSpeed="0.00" departDelay="0.00" arrival="197.00" arrivalLane="A0bottom0_0" arrivalPos="286.40" arrivalSpeed="15.08" duration="120.00" routeLength="1179.77" waitingTime="21.00" waitingCount="2" stopTime="0.00" timeLoss="42.32" rerouteNo="0" devices="tripinfo_14" vType="DEFAULT_VEHTYPE" speedFactor="1.10" vaporized=""/>
    <tripinfo id="17" depart="86.00" departLane="right2D2_0" departPos="5.10" departSpeed="0.00" departDelay="0.00" arrival="208.00" arrivalLane="D0right0_0" arrivalPos="286.40" arrivalSpeed="14.91" duration="122.00" routeLength="1197.66" waitingTime="25.00" waitingCount="2" stopTime="0.00" timeLoss="43.68" rerouteNo="0" devices="tripinfo_17" vType="DEFAULT_VEHTYPE" speedFactor="1.12" vaporized=""/>
    <tripinfo id="26" depart="120.00" departLane="left3A3_0" departPos="5.10" departSpeed="0.00" departDelay="0.00" arrival="208.00" arrivalLane="B3top1_0" arrivalPos="286.40" arrivalSpeed="14.26" duration="88.00" routeLength="897.72" waitingTime="15.00" waitingCount="1" stopTime="0.00" timeLoss="25.05" rerouteNo="0" devices="tripinfo_26" vType="DEFAULT_VEHTYPE" speedFactor="1.04" vaporized=""/>
    <tripinfo id="8" depart="49.00" departLane="left2A2_0" departPos="5.10" departSpeed="0.00" departDelay="0.00" arrival="228.00" arrivalLane="D2right2_0" arrivalPos="286.40" arrivalSpeed="14.12" duration="179.00" routeLength="1495.58" waitingTime="58.00" waitingCount="2" stopTime="0.00" timeLoss="78.46" rerouteNo="0" devices="tripinfo_8" vType="DEFAULT_VEHTYPE" speedFactor="1.08" vaporized=""/>
    <tripinfo id="9" depart="54.00" departLane="left1A1_0" departPos="5.10" departSpeed="0.00" departDelay="0.00" arrival="229.00" arrivalLane="D1right1_0" arrivalPos="286.40" arrivalSpeed="13.17" duration="175.00" routeLength="1495.58" waitingTime="40.00" waitingCount="3" stopTime="0.00" timeLoss="66.94" rerouteNo="0" devices="tripinfo_9" vType="DEFAULT_VEHTYPE" speedFactor="1.00" vaporized=""/>
    <tripinfo id="42" depart="174.00" departLane="top3D3_0" departPos="5.10" departSpeed="0.00" departDelay="0.00" arrival="229.00" arrivalLane="D3right3_0" arrivalPos="286.40" arrivalSpeed="14.16" duration="55.00" routeLength="597.55" waitingTime="1.00" waitingCount="1" stopTime="0.00" timeLoss="11.81" rerouteNo="0" devices="tripinfo_42" vType="DEFAULT_VEHTYPE" speedFactor="1.02" vaporized=""/>
    <tripinfo id="6" depart="41.00" departLane="left1A1_0" departPos="5.10" departSpeed="0.00" departDelay="0.00" arrival="230.00" arrivalLane="A1left1_0" arrivalPos="286.40" arrivalSpeed="13.29" duration="189.00" routeLength="1748.75" waitingTime="29.00" waitingCount="3" stopTime="0.00" timeLoss="56.40" rerouteNo="0" devices="tripinfo_6" vType="DEFAULT_VEHTYPE" speedFactor="0.97" vaporized=""/>
    <tripinfo id="31" depart="126.00" departLane="left2A2_0" departPos="5.10" departSpeed="0.00" departDelay="0.00" arrival="230.00" arrivalLane="A0bottom0_0" arrivalPos="286.40" arrivalSpeed="14.33" duration="104.00" routeLength="1179.77" waitingTime="4.00" waitingCount="2" stopTime="0.00" timeLoss="22.25" rerouteNo="0" devices="tripinfo_31" vType="DEFAULT_VEHTYPE" speedFactor="1.06" vaporized=""/>
    <tripinfo id="10" depart="62.00" departLane="top2C3_0" departPos="5.10" departSpeed="0.00" departDelay="0.00" arrival="237.00" arrivalLane="D0bottom3_0" arrivalPos="286.40" arrivalSpeed="14.26" duration="175.00" routeLength="1782.59" waitingTime="29.00" waitingCount="3" stopTime="0.00" timeLoss="56.94" rerouteNo="0" devices="tripinfo_10" vType="DEFAULT_VEHTYPE" speedFactor="1.10" vaporized=""/>
    <tripinfo id="4" depart="30.00" departLane="right3D3_0" departPos="5.10" departSpeed="0.00" departDelay="0.00" arrival="243.00" arrivalLane="A2left2_0" arrivalPos="286.40" arrivalSpeed="11.52" duration="213.00" routeLength="1782.59" waitingTime="31.00" waitingCount="4" stopTime="0.00" timeLoss="61.01" rerouteNo="0" devices="tripinfo_4" vType="DEFAULT_VEHTYPE" speedFactor="0.85" vaporized=""/>
    <tripinfo id="11" depart="62.00" departLane="right0D0_0" departPos="5.10" departSpeed="0.00" departDelay="0.00" arrival="256.00" arrivalLane="A2left2_0" arrivalPos="286.40" arrivalSpeed="14.55" duration="194.00" routeLength="2082.76" waitingTime="33.00" waitingCount="3" stopTime="0.00" timeLoss="61.53" rerouteNo="0" devices="tripinfo_11" vType="DEFAULT_VEHTYPE" speedFactor="1.14" vaporized=""/>
    <tripinfo id="5" depart="40.00" departLane="top3D3_0" departPos="5.10" departSpeed="0.00" departDelay="0.00" arrival="260.00" arrivalLane="A0left0_1" arrivalPos="286.40" arrivalSpeed="14.16" duration="220.00" routeLength="2380.45" waitingTime="15.00" waitingCount="4" stopTime="0.00" timeLoss="53.79" rerouteNo="0" devices="tripinfo_5" vType="DEFAULT_VEHTYPE" speedFactor="1.03" vaporized=""/>
    <tripinfo id="24" depart="116.00" departLane="bottom3D0_0" departPos="5.10" departSpeed="0.00" departDelay="0.00" arrival="260.00" arrivalLane="A0left0_0" arrivalPos="286.40" arrivalSpeed="13.07" duration="144.00" routeLength="1495.35" waitingTime="9.00" waitingCount="2" stopTime="0.00" timeLoss="29.97" rerouteNo="0" devices="tripinfo_24" vType="DEFAULT_VEHTYPE" speedFactor="0.96" vaporized=""/>
    <tripinfo id="28" depart="124.00" departLane="right1D1_0" departPos="5.10" departSpeed="0.00" departDelay="0.00" arrival="260.00" arrivalLane="C0bottom2_0" arrivalPos="286.40" arrivalSpeed="13.64" duration="136.00" routeLength="1195.18" waitingTime="29.00" waitingCount="2" stopTime="0.00" timeLoss="48.28" rerouteNo="0" devices="tripinfo_28" vType="DEFAULT_VEHTYPE" speedFactor="0.99" vaporized=""/>
    <tripinfo id="23" depart="114.00" departLane="left3A3_0" departPos="5.10" departSpeed="0.00" departDelay="0.00" arrival="276.00" arrivalLane="D2right2_0" arrivalPos="286.40" arrivalSpeed="15.53" duration="162.00" routeLength="1782.72" waitingTime="16.00" waitingCount="2" stopTime="0.00" timeLoss="52.08" rerouteNo="0" devices="tripinfo_23" vType="DEFAULT_VEHTYPE" speedFactor="1.18" vaporized=""/>
    <tripinfo id="52" depart="208.00" departLane="bottom1B0_0" departPos="5.10" departSpeed="0.00" departDelay="0.00" arrival="286.00" arrivalLane="C0bottom2_0" arrivalPos="286.40" arrivalSpeed="14.02" duration="78.00" routeLength="858.56" waitingTime="1.00" waitingCount="1" stopTime="0.00" timeLoss="17.10" rerouteNo="0" devices="tripinfo_52" vType="DEFAULT_VEHTYPE" speedFactor="1.05" vaporized=""/>
    <tripinfo id="35" depart="151.00" departLane="left2A2_0" departPos="5.10" departSpeed="0.00" departDelay="0.00" arrival="289.00" arrivalLane="A3left3_0" arrivalPos="286.40" arrivalSpeed="13.02" duration="138.00" routeLength="894.86" waitingTime="55.00" waitingCount="2" stopTime="0.00" timeLoss="73.97" rerouteNo="0" devices="tripinfo_35" vType="DEFAULT_VEHTYPE" speedFactor="1.03" vaporized=""/>
    <tripinfo id="37" depart="158.00" departLane="left2A2_0" departPos="5.10" departSpeed="0.00" departDelay="0.00" arrival="293.00" arrivalLane="A3left3_0" arrivalPos="286.40" arrivalSpeed="12.43" duration="135.00" routeLength="894.86" waitingTime="47.00" waitingCount="2" stopTime="0.00" timeLoss="65.22" rerouteNo="0" devices="tripinfo_37" vType="DEFAULT_VEHTYPE" speedFactor="0.95" vaporized=""/>
    <tripinfo id="30" depart="126.00" departLane="left1A1_0" departPos="5.10" departSpeed="0.00" departDelay="0.00" arrival="294.00" arrivalLane="A3left3_1" arrivalPos="286.40" arrivalSpeed="12.68" duration="168.00" routeLength="1197.66" waitingTime="57.00" waitingCount="3" stopTime="0.00" timeLoss="80.51" rerouteNo="0" devices="tripinfo_30" vType="DEFAULT_VEHTYPE" speedFactor="1.00" vaporized=""/>
    <tripinfo id="16" depart="85.00" departLane="left3A3_0" departPos="5.10" departSpeed="0.00" departDelay="0.00" arrival="296.00" arrivalLane="A3left3_0" arrivalPos="286.40" arrivalSpeed="13.53" duration="211.00" routeLength="1748.75" waitingTime="45.00" waitingCount="5" stopTime="0.00" timeLoss="80.50" rerouteNo="0" devices="tripinfo_16" vType="DEFAULT_VEHTYPE" speedFactor="0.98" vaporized=""/>
    <tripinfo id="45" depart="180.00" departLane="bottom1B0_0" departPos="5.10" departSpeed="0.00" departDelay="0.00" arrival="302.00" arrivalLane="A0left0_0" arrivalPos="286.40" arrivalSpeed="11.38" duration="122.00" routeLength="895.01" waitingTime="30.00" waitingCount="2" stopTime="0.00" timeLoss="49.30" rerouteNo="0" devices="tripinfo_45" vType="DEFAULT_VEHTYPE" speedFactor="0.90" vaporized=""/>
    <tripinfo id="25" depart="119.00" departLane="left2A2_0" departPos="5.10" departSpeed="0.00" departDelay="0.00" arrival="317.00" arrivalLane="C0bottom2_0" arrivalPos="286.40" arrivalSpeed="15.14" duration="198.00" routeLength="1780.11" waitingTime="45.00" waitingCount="3" stopTime="0.00" timeLoss="83.58" rerouteNo="0" devices="tripinfo_25" vType="DEFAULT_VEHTYPE" speedFactor="1.13" vaporized=""/>
    <tripinfo id="13" depart="75.00" departLane="right2D2_0" departPos="5.10" departSpeed="0.00" departDelay="0.00" arrival="324.00" arrivalLane="A3top0_0" arrivalPos="286.40" arrivalSpeed="10.95" duration="249.00" routeLength="1780.11" waitingTime="64.00" waitingCount="2" stopTime="0.00" timeLoss="92.70" rerouteNo="0" devices="tripinfo_13" vType="DEFAULT_VEHTYPE" speedFactor="0.83" vaporized=""/>
    <tripinfo id="19" depart="105.00" departLane="right1D1_0" departPos="5.10" departSpeed="0.00" departDelay="0.00" arrival="324.00" arrivalLane="B0bottom1_0" arrivalPos="286.40" arrivalSpeed="10.39" duration="219.00" routeLength="1495.35" waitingTime="58.00" waitingCount="4" stopTime="0.00" timeLoss="87.21" rerouteNo="0" devices="tripinfo_19" vType="DEFAULT_VEHTYPE" speedFactor="0.82" vaporized=""/>
    <tripinfo id="22" depart="113.00" departLane="left2A2_0" departPos="5.10" departSpeed="0.00" departDelay="0.00" arrival="329.00" arrivalLane="D1right1_0" arrivalPos="286.40" arrivalSpeed="13.46" duration="216.00" routeLength="1782.72" waitingTime="56.00" waitingCount="4" stopTime="0.00" timeLoss="88.71" rerouteNo="0" devices="tripinfo_22" vType="DEFAULT_VEHTYPE" speedFactor="1.02" vaporized=""/>
    <tripinfo id="15" depart="85.00" departLane="top3D3_0" departPos="5.10" departSpeed="0.00" departDelay="0.00" arrival="333.00" arrivalLane="A3top0_0" arrivalPos="286.40" arrivalSpeed="12.21" duration="248.00" routeLength="1461.60" waitingTime="103.00" waitingCount="4" stopTime="0.00" timeLoss="130.49" rerouteNo="0" devices="tripinfo_15" vType="DEFAULT_VEHTYPE" speedFactor="0.91" vaporized=""/>
    <tripinfo id="27" depart="123.00" departLane="left1A1_0" departPos="5.10" departSpeed="0.00" departDelay="0.00" arrival="339.00" arrivalLane="D0right0_0" arrivalPos="286.40" arrivalSpeed="13.21" duration="216.00" routeLength="1782.72" waitingTime="54.00" waitingCount="4" stopTime="0.00" timeLoss="87.17" rerouteNo="0" devices="tripinfo_27" vType="DEFAULT_VEHTYPE" speedFactor="1.01" vaporized=""/>
    <tripinfo id="63" depart="243.00" departLane="top0A3_0" departPos="5.10" departSpeed="0.00" departDelay="0.00" arrival="346.00" arrivalLane="A2left2_0" arrivalPos="286.40" arrivalSpeed="14.40" duration="103.00" routeLength="876.90" waitingTime="24.00" waitingCount="2" stopTime="0.00" timeLoss="41.23" rerouteNo="0" devices="tripinfo_63" vType="DEFAULT_VEHTYPE" speedFactor="1.04" vaporized=""/>
    <tripinfo id="33" depart="139.00" departLane="left2A2_0" departPos="5.10" departSpeed="0.00" departDelay="0.00" arrival="348.00" arrivalLane="D3right3_0" arrivalPos="286.40" arrivalSpeed="13.51" duration="209.00" routeLength="1782.59" waitingTime="56.00" waitingCount="3" stopTime="0.00" timeLoss="87.70" rerouteNo="0" devices="tripinfo_33" vType="DEFAULT_VEHTYPE" speedFactor="1.07" vaporized=""/>
    <tripinfo id="49" depart="191.00" departLane="top0A3_0" departPos="5.10" departSpeed="0.00" departDelay="0.00" arrival="352.00" arrivalLane="B3top1_0" arrivalPos="286.40" arrivalSpeed="12.13" duration="161.00" routeLength="894.86" waitingTime="73.00" waitingCount="2" stopTime="0.00" timeLoss="89.13" rerouteNo="0" devices="tripinfo_49" vType="DEFAULT_VEHTYPE" speedFactor="0.92" vaporized=""/>
    <tripinfo id="3" depart="29.00" departLane="bottom2C0_0" departPos="5.10" departSpeed="0.00" departDelay="0.00" arrival="353.00" arrivalLane="A3left3_0" arrivalPos="286.40" arrivalSpeed="11.60" duration="324.00" routeLength="2095.69" waitingTime="111.00" waitingCount="6" stopTime="0.00" timeLoss="150.61" rerouteNo="0" devices="tripinfo_3" vType="DEFAULT_VEHTYPE" speedFactor="0.88" vaporized=""/>
    <tripinfo id="60" depart="235.00" departLane="top0A3_0" departPos="5.10" departSpeed="0.00" departDelay="0.00" arrival="353.00" arrivalLane="B3top1_1" arrivalPos="286.40" arrivalSpeed="12.82" duration="118.00" routeLength="894.86" waitingTime="31.00" waitingCount="2" stopTime="0.00" timeLoss="49.11" rerouteNo="0" devices="tripinfo_60" vType="DEFAULT_VEHTYPE" speedFactor="0.96" vaporized=""/>
    <tripinfo id="59" depart="233.00" departLane="left0A0_0" departPos="5.10" departSpeed="0.00" departDelay="0.00" arrival="355.00" arrivalLane="C0bottom2_0" arrivalPos="286.40" arrivalSpeed="12.63" duration="122.00" routeLength="1177.07" waitingTime="12.00" waitingCount="2" stopTime="0.00" timeLoss="31.82" rerouteNo="0" devices="tripinfo_59" vType="DEFAULT_VEHTYPE" speedFactor="0.96" vaporized=""/>
    <tripinfo id="34" depart="149.00" departLane="top2C3_0" departPos="5.10" departSpeed="0.00" departDelay="0.00" arrival="359.00" arrivalLane="A1left1_0" arrivalPos="286.40" arrivalSpeed="13.30" duration="210.00" routeLength="1780.11" waitingTime="41.00" waitingCount="5" stopTime="0.00" timeLoss="80.82" rerouteNo="0" devices="tripinfo_34" vType="DEFAULT_VEHTYPE" speedFactor="1.00" vaporized=""/>
    <tripinfo id="29" depart="125.00" departLane="right3D3_0" departPos="5.10" departSpeed="0.00" departDelay="0.00" arrival="361.00" arrivalLane="C0bottom2_0" arrivalPos="286.40" arrivalSpeed="11.52" duration="236.00" routeLength="1795.52" waitingTime="53.00" waitingCount="4" stopTime="0.00" timeLoss="88.04" rerouteNo="0" devices="tripinfo_29" vType="DEFAULT_VEHTYPE" speedFactor="0.88" vaporized=""/>
    <tripinfo id="41" depart="173.00" departLane="right3D3_0" departPos="5.10" departSpeed="0.00" departDelay="0.00" arrival="367.00" arrivalLane="C0bottom2_0" arrivalPos="286.40" arrivalSpeed="11.36" duration="194.00" routeLength="1795.52" waitingTime="22.00" waitingCount="2" stopTime="0.00" timeLoss="45.49" rerouteNo="0" devices="tripinfo_41" vType="DEFAULT_VEHTYPE" speedFactor="0.88" vaporized=""/>
    <tripinfo id="38" depart="161.00" departLane="left1A1_0" departPos="5.10" departSpeed="0.00" departDelay="0.00" arrival="368.00" arrivalLane="D0bottom3_1" arrivalPos="286.40" arrivalSpeed="16.30" duration="207.00" routeLength="1780.11" waitingTime="62.00" waitingCount="4" stopTime="0.00" timeLoss="99.99" rerouteNo="0" devices="tripinfo_38" vType="DEFAULT_VEHTYPE" speedFactor="1.21" vaporized=""/>
    <tripinfo id="50" depart="196.00" departLane="right0D0_0" departPos="5.10" departSpeed="0.00" departDelay="0.00" arrival="369.00" arrivalLane="A0bottom0_0" arrivalPos="286.40" arrivalSpeed="14.86" duration="173.00" routeLength="1498.06" waitingTime="55.00" waitingCount="2" stopTime="0.00" timeLoss="75.24" rerouteNo="0" devices="tripinfo_50" vType="DEFAULT_VEHTYPE" speedFactor="1.12" vaporized=""/>
    <tripinfo id="54" depart="220.00" departLane="top0A3_0" departPos="5.10" departSpeed="0.00" departDelay="0.00" arrival="369.00" arrivalLane="C3top2_0" arrivalPos="286.40" arrivalSpeed="12.55" duration="149.00" routeLength="1197.66" waitingTime="38.00" waitingCount="2" stopTime="0.00" timeLoss="61.50" rerouteNo="0" devices="tripinfo_54" vType="DEFAULT_VEHTYPE" speedFactor="1.00" vaporized=""/>
    <tripinfo id="66" depart="272.00" departLane="left3A3_0" departPos="5.10" departSpeed="0.00" departDelay="0.00" arrival="370.00" arrivalLane="B3top1_0" arrivalPos="286.40" arrivalSpeed="13.92" duration="98.00" routeLength="897.72" waitingTime="24.00" waitingCount="1" stopTime="0.00" timeLoss="36.51" rerouteNo="0" devices="tripinfo_66" vType="DEFAULT_VEHTYPE" speedFactor="1.07" vaporized=""/>
    <tripinfo id="48" depart="190.00" departLane="top2C3_0" departPos="5.10" departSpeed="0.00" departDelay="0.00" arrival="373.00" arrivalLane="C3top2_0" arrivalPos="286.40" arrivalSpeed="14.32" duration="183.00" routeLength="1748.75" waitingTime="30.00" waitingCount="4" stopTime="0.00" timeLoss="67.80" rerouteNo="0" devices="tripinfo_48" vType="DEFAULT_VEHTYPE" speedFactor="1.12" vaporized=""/>
    <tripinfo id="18" depart="100.00" departLane="left2A2_0" departPos="5.10" departSpeed="0.00" departDelay="0.00" arrival="374.00" arrivalLane="D0bottom3_0" arrivalPos="286.40" arrivalSpeed="10.59" duration="274.00" routeLength="2080.28" waitingTime="61.00" waitingCount="3" stopTime="0.00" timeLoss="90.45" rerouteNo="0" devices="tripinfo_18" vType="DEFAULT_VEHTYPE" speedFactor="0.82" vaporized=""/>
    <tripinfo id="43" depart="176.00" departLane="bottom2C0_0" departPos="5.10" departSpeed="0.00" departDelay="0.00" arrival="379.00" arrivalLane="B3top1_0" arrivalPos="286.40" arrivalSpeed="12.61" duration="203.00" routeLength="1782.59" waitingTime="50.00" waitingCount="2" stopTime="0.00" timeLoss="72.20" rerouteNo="0" devices="tripinfo_43" vType="DEFAULT_VEHTYPE" speedFactor="0.99" vaporized=""/>
    <tripinfo id="32" depart="137.00" departLane="top1B3_0" departPos="5.10" departSpeed="0.00" departDelay="0.00" arrival="383.00" arrivalLane="A0bottom0_0" arrivalPos="286.40" arrivalSpeed="11.00" duration="246.00" routeLength="1782.72" waitingTime="60.00" waitingCount="4" stopTime="0.00" timeLoss="92.77" rerouteNo="0" devices="tripinfo_32" vType="DEFAULT_VEHTYPE" speedFactor="0.85" vaporized=""/>
    <tripinfo id="55" depart="222.00" departLane="right0D0_0" departPos="5.10" departSpeed="0.00" departDelay="0.00" arrival="384.00" arrivalLane="D3right3_0" arrivalPos="286.40" arrivalSpeed="13.61" duration="162.00" routeLength="1461.60" waitingTime="33.00" waitingCount="2" stopTime="0.00" timeLoss="57.36" rerouteNo="0" devices="tripinfo_55" vType="DEFAULT_VEHTYPE" speedFactor="1.03" vaporized=""/>
    <tripinfo id="73" depart="311.00" departLane="left2A2_0" departPos="5.10" departSpeed="0.00" departDelay="0.00" arrival="385.00" arrivalLane="A1left1_0" arrivalPos="286.40" arrivalSpeed="14.83" duration="74.00" routeLength="858.56" waitingTime="1.00" waitingCount="1" stopTime="0.00" timeLoss="17.97" rerouteNo="0" devices="tripinfo_73" vType="DEFAULT_VEHTYPE" speedFactor="1.13" vaporized=""/>
    <tripinfo id="20" depart="106.00" departLane="right2D2_0" departPos="5.10" departSpeed="0.00" departDelay="0.00" arrival="393.00" arrivalLane="A0left0_0" arrivalPos="286.40" arrivalSpeed="12.04" duration="287.00" routeLength="2080.05" waitingTime="78.00" waitingCount="5" stopTime="0.00" timeLoss="113.51" rerouteNo="0" devices="tripinfo_20" vType="DEFAULT_VEHTYPE" speedFactor="0.87" vaporized=""/>
    <tripinfo id="67" depart="285.00" departLane="right2D2_0" departPos="5.10" departSpeed="0.00" departDelay="0.00" arrival="394.00" arrivalLane="D1right1_0" arrivalPos="286.40" arrivalSpeed="10.98" duration="109.00" routeLength="894.86" waitingTime="17.00" waitingCount="1" stopTime="0.00" timeLoss="29.68" rerouteNo="0" devices="tripinfo_67" vType="DEFAULT_VEHTYPE" speedFactor="0.83" vaporized=""/>
    <tripinfo id="56" depart="226.00" departLane="bottom1B0_0" departPos="5.10" departSpeed="0.00" departDelay="0.00" arrival="397.00" arrivalLane="A1left1_0" arrivalPos="286.40" arrivalSpeed="14.52" duration="171.00" routeLength="1195.18" waitingTime="70.00" waitingCount="3" stopTime="0.00" timeLoss="92.95" rerouteNo="0" devices="tripinfo_56" vType="DEFAULT_VEHTYPE" speedFactor="1.12" vaporized=""/>
    <tripinfo id="70" depart="308.00" departLane="bottom3D0_0" departPos="5.10" departSpeed="0.00" departDelay="0.00" arrival="402.00" arrivalLane="D1right1_0" arrivalPos="286.40" arrivalSpeed="11.72" duration="94.00" routeLength="876.90" waitingTime="7.00" waitingCount="2" stopTime="0.00" timeLoss="23.47" rerouteNo="0" devices="tripinfo_70" vType="DEFAULT_VEHTYPE" speedFactor="0.91" vaporized=""/>
    <tripinfo id="46" depart="187.00" departLane="top2C3_0" departPos="5.10" departSpeed="0.00" departDelay="0.00" arrival="407.00" arrivalLane="A0bottom0_0" arrivalPos="286.40" arrivalSpeed="12.90" duration="220.00" routeLength="2082.76" waitingTime="38.00" waitingCount="2" stopTime="0.00" timeLoss="63.25" rerouteNo="0" devices="tripinfo_46" vType="DEFAULT_VEHTYPE" speedFactor="0.97" vaporized=""/>
    <tripinfo id="47" depart="190.00" departLane="left2A2_0" departPos="5.10" departSpeed="0.00" departDelay="0.00" arrival="409.00" arrivalLane="D1right1_0" arrivalPos="286.40" arrivalSpeed="13.23" duration="219.00" routeLength="1782.72" waitingTime="54.00" waitingCount="5" stopTime="0.00" timeLoss="90.82" rerouteNo="0" devices="tripinfo_47" vType="DEFAULT_VEHTYPE" speedFactor="1.02" vaporized=""/>
    <tripinfo id="53" depart="220.00" departLane="right1D1_0" departPos="5.10" departSpeed="0.00" departDelay="0.00" arrival="409.00" arrivalLane="B0bottom1_0" arrivalPos="286.40" arrivalSpeed="13.49" duration="189.00" routeLength="1495.35" waitingTime="58.00" waitingCount="2" stopTime="0.00" timeLoss="80.32" rerouteNo="0" devices="tripinfo_53" vType="DEFAULT_VEHTYPE" speedFactor="1.00" vaporized=""/>
    <tripinfo id="65" depart="260.00" departLane="bottom2C0_0" departPos="5.10" departSpeed="0.00" departDelay="0.00" arrival="409.00" arrivalLane="C3top2_0" arrivalPos="286.40" arrivalSpeed="14.17" duration="149.00" routeLength="1495.58" waitingTime="28.00" waitingCount="2" stopTime="0.00" timeLoss="48.70" rerouteNo="0" devices="tripinfo_65" vType="DEFAULT_VEHTYPE" speedFactor="1.08" vaporized=""/>
    <tripinfo id="36" depart="158.00" departLane="right3D3_0" departPos="5.10" departSpeed="0.00" departDelay="0.00" arrival="412.00" arrivalLane="B0bottom1_0" arrivalPos="286.40" arrivalSpeed="13.31" duration="254.00" routeLength="2095.69" waitingTime="61.00" waitingCount="3" stopTime="0.00" timeLoss="96.52" rerouteNo="0" devices="tripinfo_36" vType="DEFAULT_VEHTYPE" speedFactor="0.96" vaporized=""/>
    <tripinfo id="83" depart="339.00" departLane="top1B3_0" departPos="5.10" departSpeed="0.00" departDelay="0.00" arrival="418.00" arrivalLane="A3top0_0" arrivalPos="286.40" arrivalSpeed="12.54" duration="79.00" routeLength="858.56" waitingTime="1.00" waitingCount="1" stopTime="0.00" timeLoss="15.58" rerouteNo="0" devices="tripinfo_83" vType="DEFAULT_VEHTYPE" speedFactor="1.00" vaporized=""/>
    <tripinfo id="21" depart="113.00" departLane="bottom1B0_0" departPos="5.10" departSpeed="0.00" departDelay="0.00" arrival="426.00" arrivalLane="D3top3_0" arrivalPos="286.40" arrivalSpeed="16.38" duration="313.00" routeLength="2082.76" waitingTime="145.00" waitingCount="5" stopTime="0.00" timeLoss="187.31" rerouteNo="0" devices="tripinfo_21" vType="DEFAULT_VEHTYPE" speedFactor="1.21" vaporized=""/>
    <tripinfo id="57" depart="230.00" departLane="top2C3_0" departPos="5.10" departSpeed="0.00" departDelay="0.00" arrival="428.00" arrivalLane="D0bottom3_1" arrivalPos="286.40" arrivalSpeed="15.77" duration="198.00" routeLength="1782.59" waitingTime="29.00" waitingCount="3" stopTime="0.00" timeLoss="88.84" rerouteNo="0" devices="tripinfo_57" vType="DEFAULT_VEHTYPE" speedFactor="1.19" vaporized=""/>
    <tripinfo id="76" depart="318.00" departLane="left1A1_0" departPos="5.10" departSpeed="0.00" departDelay="0.00" arrival="429.00" arrivalLane="A3left3_0" arrivalPos="286.40" arrivalSpeed="12.65" duration="111.00" routeLength="1197.66" waitingTime="7.00" waitingCount="1" stopTime="0.00" timeLoss="19.96" rerouteNo="0" devices="tripinfo_76" vType="DEFAULT_VEHTYPE" speedFactor="0.96" vaporized=""/>
    <tripinfo id="62" depart="242.00" departLane="bottom0A0_0" departPos="5.10" departSpeed="0.00" departDelay="0.00" arrival="432.00" arrivalLane="A3top0_0" arrivalPos="286.40" arrivalSpeed="12.01" duration="190.00" routeLength="1495.58" waitingTime="43.00" waitingCount="2" stopTime="0.00" timeLoss="69.27" rerouteNo="0" devices="tripinfo_62" vType="DEFAULT_VEHTYPE" speedFactor="0.90" vaporized=""/>
    <tripinfo id="99" depart="386.00" departLane="bottom3D0_0" departPos="5.10" departSpeed="0.00" departDelay="0.00" arrival="432.00" arrivalLane="D0right0_0" arrivalPos="286.40" arrivalSpeed="14.22" duration="46.00" routeLength="576.73" waitingTime="0.00" waitingCount="0" stopTime="0.00" timeLoss="6.56" rerouteNo="0" devices="tripinfo_99" vType="DEFAULT_VEHTYPE" speedFactor="1.08" vaporized=""/>
    <tripinfo id="44" depart="178.00" departLane="top2C3_0" departPos="5.10" departSpeed="0.00" departDelay="0.00" arrival="433.00" arrivalLane="D0bottom3_0" arrivalPos="286.40" arrivalSpeed="11.58" duration="255.00" routeLength="1782.59" waitingTime="65.00" waitingCount="5" stopTime="0.00" timeLoss="103.23" rerouteNo="0" devices="tripinfo_44" vType="DEFAULT_VEHTYPE" speedFactor="0.86" vaporized=""/>
    <tripinfo id="71" depart="308.00" departLane="top2C3_0" departPos="5.10" departSpeed="0.00" departDelay="0.00" arrival="439.00" arrivalLane="D2right2_0" arrivalPos="286.40" arrivalSpeed="12.97" duration="131.00" routeLength="1195.18" waitingTime="26.00" waitingCount="1" stopTime="0.00" timeLoss="45.00" rerouteNo="0" devices="tripinfo_71" vType="DEFAULT_VEHTYPE" speedFactor="1.02" vaporized=""/>
    <tripinfo id="74" depart="316.00" departLane="top2C3_0" departPos="5.10" departSpeed="0.00" departDelay="0.00" arrival="440.00" arrivalLane="D2right2_0" arrivalPos="286.40" arrivalSpeed="13.91" duration="124.00" routeLength="1195.18" waitingTime="20.00" waitingCount="2" stopTime="0.00" timeLoss="39.47" rerouteNo="0" devices="tripinfo_74" vType="DEFAULT_VEHTYPE" speedFactor="1.02" vaporized=""/>
    <tripinfo id="64" depart="247.00" departLane="top0A3_0" departPos="5.10" departSpeed="0.00" departDelay="0.00" arrival="441.00" arrivalLane="D2right2_1" arrivalPos="286.40" arrivalSpeed="14.78" duration="194.00" routeLength="1795.52" waitingTime="39.00" waitingCount="4" stopTime="0.00" timeLoss="74.79" rerouteNo="0" devices="tripinfo_64" vType="DEFAULT_VEHTYPE" speedFactor="1.09" vaporized=""/>
    <tripinfo id="91" depart="364.00" departLane="top2C3_0" departPos="5.10" departSpeed="0.00" departDelay="0.00" arrival="447.00" arrivalLane="B3top1_0" arrivalPos="286.40" arrivalSpeed="13.31" duration="83.00" routeLength="858.56" waitingTime="2.00" waitingCount="2" stopTime="0.00" timeLoss="19.18" rerouteNo="0" devices="tripinfo_91" vType="DEFAULT_VEHTYPE" speedFactor="1.00" vaporized=""/>