<?xml version="1.0" encoding="UTF-8"?>

<!-- generated on 12/21/21 17:57:50 by Eclipse SUMO sumo Version 1.7.0
<configuration xmlns:xsi="http://www.w3.org/2001/XMLSchema-instance" xsi:noNamespaceSchemaLocation="http://sumo.dlr.de/xsd/sumoConfiguration.xsd">

    <input>
        <net-file value="C:\Users\longs\Desktop\drl-signal\environments\grid4x4\grid4x4.net.xml"/>
        <route-files value="C:\Users\longs\Desktop\drl-signal\environments\grid4x4\grid4x4_1.rou.xml"/>
    </input>

    <output>
        <tripinfo-output value="C:\Users\longs\Desktop\drl-signal\logs\IDQN-tr1-grid4x4-0-drqlong-delaydiff_pressure0\tripinfo_1.xml"/>
        <tripinfo-output.write-unfinished value="true"/>
    </output>

    <processing>
        <time-to-teleport value="-1"/>
    </processing>

    <report>
        <no-warnings value="true"/>
        <no-step-log value="true"/>
    </report>

    <traci_server>
        <remote-port value="60378"/>
    </traci_server>

    <random_number>
        <random value="true"/>
    </random_number>

</configuration>
-->

<tripinfos xmlns:xsi="http://www.w3.org/2001/XMLSchema-instance" xsi:noNamespaceSchemaLocation="http://sumo.dlr.de/xsd/tripinfo_file.xsd">
    <tripinfo id="2" depart="14.00" departLane="left0A0_0" departPos="5.10" departSpeed="0.00" departDelay="0.00" arrival="84.00" arrivalLane="B0bottom1_0" arrivalPos="286.40" arrivalSpeed="13.22" duration="70.00" routeLength="876.90" waitingTime="0.00" waitingCount="0" stopTime="0.00" timeLoss="6.28" rerouteNo="0" devices="tripinfo_2" vType="DEFAULT_VEHTYPE" speedFactor="1.00" vaporized=""/>
    <tripinfo id="6" depart="39.00" departLane="bottom1B0_0" departPos="5.10" departSpeed="0.00" departDelay="1.00" arrival="132.00" arrivalLane="A0left0_0" arrivalPos="286.40" arrivalSpeed="12.10" duration="93.00" routeLength="895.01" waitingTime="9.00" waitingCount="1" stopTime="0.00" timeLoss="19.09" rerouteNo="0" devices="tripinfo_6" vType="DEFAULT_VEHTYPE" speedFactor="0.89" vaporized=""/>
    <tripinfo id="8" depart="57.00" departLane="top2C3_0" departPos="5.10" departSpeed="0.00" departDelay="0.00" arrival="157.00" arrivalLane="D3top3_0" arrivalPos="286.40" arrivalSpeed="10.41" duration="100.00" routeLength="894.86" waitingTime="3.00" waitingCount="1" stopTime="0.00" timeLoss="14.81" rerouteNo="0" devices="tripinfo_8" vType="DEFAULT_VEHTYPE" speedFactor="0.77" vaporized=""/>
    <tripinfo id="0" depart="0.00" departLane="top3D3_0" departPos="5.10" departSpeed="0.00" departDelay="0.00" arrival="160.00" arrivalLane="D3top3_1" arrivalPos="286.40" arrivalSpeed="13.20" duration="160.00" routeLength="1748.75" waitingTime="5.00" waitingCount="3" stopTime="0.00" timeLoss="28.26" rerouteNo="0" devices="tripinfo_0" vType="DEFAULT_VEHTYPE" speedFactor="0.98" vaporized=""/>
    <tripinfo id="7" depart="53.00" departLane="top1B3_0" departPos="5.10" departSpeed="0.00" departDelay="0.00" arrival="161.00" arrivalLane="D3top3_0" arrivalPos="286.40" arrivalSpeed="11.39" duration="108.00" routeLength="1197.66" waitingTime="0.00" waitingCount="0" stopTime="0.00" timeLoss="7.88" rerouteNo="0" devices="tripinfo_7" vType="DEFAULT_VEHTYPE" speedFactor="0.88" vaporized=""/>
    <tripinfo id="25" depart="111.00" departLane="right3D3_0" departPos="5.10" departSpeed="0.00" departDelay="0.00" arrival="168.00" arrivalLane="D3top3_0" arrivalPos="286.40" arrivalSpeed="11.59" duration="57.00" routeLength="576.73" waitingTime="1.00" waitingCount="1" stopTime="0.00" timeLoss="10.23" rerouteNo="0" devices="tripinfo_25" vType="DEFAULT_VEHTYPE" speedFactor="0.91" vaporized=""/>
    <tripinfo id="5" depart="36.00" departLane="bottom1B0_0" departPos="5.10" departSpeed="0.00" departDelay="0.00" arrival="186.00" arrivalLane="B3top1_0" arrivalPos="286.40" arrivalSpeed="15.76" duration="150.00" routeLength="1495.58" waitingTime="32.00" waitingCount="3" stopTime="0.00" timeLoss="57.47" rerouteNo="0" devices="tripinfo_5" vType="DEFAULT_VEHTYPE" speedFactor="1.17" vaporized=""/>
    <tripinfo id="22" depart="104.00" departLane="top1B3_0" departPos="5.10" departSpeed="0.00" departDelay="0.00" arrival="218.00" arrivalLane="D3top3_0" arrivalPos="286.40" arrivalSpeed="14.90" duration="114.00" routeLength="1197.66" waitingTime="21.00" waitingCount="1" stopTime="0.00" timeLoss="34.96" rerouteNo="0" devices="tripinfo_22" vType="DEFAULT_VEHTYPE" speedFactor="1.12" vaporized=""/>
    <tripinfo id="14" depart="77.00" departLane="right0D0_0" departPos="5.10" departSpeed="0.00" departDelay="0.00" arrival="219.00" arrivalLane="D2right2_0" arrivalPos="286.40" arrivalSpeed="12.61" duration="142.00" routeLength="1161.43" waitingTime="30.00" waitingCount="2" stopTime="0.00" timeLoss="51.53" rerouteNo="0" devices="tripinfo_14" vType="DEFAULT_VEHTYPE" speedFactor="0.94" vaporized=""/>
    <tripinfo id="1" depart="9.00" departLane="left0A0_0" departPos="5.10" departSpeed="0.00" departDelay="0.00" arrival="221.00" arrivalLane="A3top0_0" arrivalPos="286.40" arrivalSpeed="13.52" duration="212.00" routeLength="1495.35" waitingTime="87.00" waitingCount="2" stopTime="0.00" timeLoss="104.52" rerouteNo="0" devices="tripinfo_1" vType="DEFAULT_VEHTYPE" speedFactor="1.01" vaporized=""/>
    <tripinfo id="31" depart="138.00" departLane="left3A3_0" departPos="5.10" departSpeed="0.00" departDelay="0.00" arrival="221.00" arrivalLane="B3top1_0" arrivalPos="286.40" arrivalSpeed="11.86" duration="83.00" routeLength="897.72" waitingTime="1.00" waitingCount="1" stopTime="0.00" timeLoss="12.35" rerouteNo="0" devices="tripinfo_31" vType="DEFAULT_VEHTYPE" speedFactor="0.93" vaporized=""/>
    <tripinfo id="23" depart="106.00" departLane="bottom2C0_0" departPos="5.10" departSpeed="0.00" departDelay="0.00" arrival="229.00" arrivalLane="D1right1_0" arrivalPos="286.40" arrivalSpeed="12.71" duration="123.00" routeLength="1179.77" waitingTime="17.00" waitingCount="3" stopTime="0.00" timeLoss="37.54" rerouteNo="0" devices="tripinfo_23" vType="DEFAULT_VEHTYPE" speedFactor="1.00" vaporized=""/>
    <tripinfo id="43" depart="186.00" departLane="top0A3_0" departPos="5.10" departSpeed="0.00" departDelay="0.00" arrival="237.00" arrivalLane="A3left3_0" arrivalPos="286.40" arrivalSpeed="13.50" duration="51.00" routeLength="576.73" waitingTime="0.00" waitingCount="0" stopTime="0.00" timeLoss="9.14" rerouteNo="0" devices="tripinfo_43" vType="DEFAULT_VEHTYPE" speedFactor="1.02" vaporized=""/>
    <tripinfo id="16" depart="84.00" departLane="left2A2_0" departPos="5.10" departSpeed="0.00" departDelay="0.00" arrival="240.00" arrivalLane="B3top1_0" arrivalPos="286.40" arrivalSpeed="12.01" duration="156.00" routeLength="1195.18" waitingTime="42.00" waitingCount="3" stopTime="0.00" timeLoss="64.54" rerouteNo="0" devices="tripinfo_16" vType="DEFAULT_VEHTYPE" speedFactor="0.95" vaporized=""/>
    <tripinfo id="13" depart="76.00" departLane="right1D1_0" departPos="5.10" departSpeed="0.00" departDelay="0.00" arrival="250.00" arrivalLane="D3top3_0" arrivalPos="286.40" arrivalSpeed="12.23" duration="174.00" routeLength="1179.77" waitingTime="64.00" waitingCount="3" stopTime="0.00" timeLoss="83.72" rerouteNo="0" devices="tripinfo_13" vType="DEFAULT_VEHTYPE" speedFactor="0.95" vaporized=""/>
    <tripinfo id="15" depart="79.00" departLane="left0A0_0" departPos="5.10" departSpeed="0.00" departDelay="0.00" arrival="259.00" arrivalLane="D0right0_0" arrivalPos="286.40" arrivalSpeed="13.29" duration="180.00" routeLength="1495.58" waitingTime="47.00" waitingCount="3" stopTime="0.00" timeLoss="72.50" rerouteNo="0" devices="tripinfo_15" vType="DEFAULT_VEHTYPE" speedFactor="1.01" vaporized=""/>
    <tripinfo id="32" depart="139.00" departLane="top2C3_0" departPos="5.10" departSpeed="0.00" departDelay="0.00" arrival="259.00" arrivalLane="D3right3_0" arrivalPos="286.40" arrivalSpeed="14.21" duration="120.00" routeLength="895.01" waitingTime="43.00" waitingCount="1" stopTime="0.00" timeLoss="55.55" rerouteNo="0" devices="tripinfo_32" vType="DEFAULT_VEHTYPE" speedFactor="1.03" vaporized=""/>
    <tripinfo id="11" depart="70.00" departLane="left1A1_0" departPos="5.10" departSpeed="0.00" departDelay="0.00" arrival="260.00" arrivalLane="A1left1_0" arrivalPos="286.40" arrivalSpeed="12.42" duration="190.00" routeLength="1748.75" waitingTime="32.00" waitingCount="3" stopTime="0.00" timeLoss="55.77" rerouteNo="0" devices="tripinfo_11" vType="DEFAULT_VEHTYPE" speedFactor="0.96" vaporized=""/>
    <tripinfo id="4" depart="34.00" departLane="left2A2_0" departPos="5.10" departSpeed="0.00" departDelay="0.00" arrival="269.00" arrivalLane="A2left2_0" arrivalPos="286.40" arrivalSpeed="13.36" duration="235.00" routeLength="1748.75" waitingTime="77.00" waitingCount="4" stopTime="0.00" timeLoss="109.31" rerouteNo="0" devices="tripinfo_4" vType="DEFAULT_VEHTYPE" speedFactor="1.02" vaporized=""/>
    <tripinfo id="21" depart="101.00" departLane="top0A3_0" departPos="5.10" departSpeed="0.00" departDelay="0.00" arrival="288.00" arrivalLane="C0bottom2_0" arrivalPos="286.40" arrivalSpeed="14.82" duration="187.00" routeLength="2080.05" waitingTime="23.00" waitingCount="3" stopTime="0.00" timeLoss="46.94" rerouteNo="0" devices="tripinfo_21" vType="DEFAULT_VEHTYPE" speedFactor="1.08" vaporized=""/>
    <tripinfo id="19" depart="90.00" departLane="right2D2_0" departPos="5.10" departSpeed="0.00" departDelay="0.00" arrival="289.00" arrivalLane="C0bottom2_1" arrivalPos="286.40" arrivalSpeed="15.24" duration="199.00" routeLength="1495.35" waitingTime="81.00" waitingCount="3" stopTime="0.00" timeLoss="102.63" rerouteNo="0" devices="tripinfo_19" vType="DEFAULT_VEHTYPE" speedFactor="1.12" vaporized=""/>
    <tripinfo id="24" depart="110.00" departLane="bottom2C0_0" departPos="5.10" departSpeed="0.00" departDelay="0.00" arrival="297.00" arrivalLane="B0bottom1_0" arrivalPos="286.40" arrivalSpeed="15.61" duration="187.00" routeLength="894.86" waitingTime="113.00" waitingCount="2" stopTime="0.00" timeLoss="128.60" rerouteNo="0" devices="tripinfo_24" vType="DEFAULT_VEHTYPE" speedFactor="1.13" vaporized=""/>
    <tripinfo id="40" depart="175.00" departLane="right0D0_0" departPos="5.10" departSpeed="0.00" departDelay="0.00" arrival="304.00" arrivalLane="B0bottom1_0" arrivalPos="286.40" arrivalSpeed="12.62" duration="129.00" routeLength="1197.89" waitingTime="27.00" waitingCount="1" stopTime="0.00" timeLoss="38.97" rerouteNo="0" devices="tripinfo_40" vType="DEFAULT_VEHTYPE" speedFactor="0.97" vaporized=""/>
    <tripinfo id="54" depart="236.00" departLane="bottom0A0_0" departPos="5.10" departSpeed="0.00" departDelay="0.00" arrival="309.00" arrivalLane="B0bottom1_0" arrivalPos="286.40" arrivalSpeed="14.51" duration="73.00" routeLength="858.56" waitingTime="1.00" waitingCount="1" stopTime="0.00" timeLoss="12.58" rerouteNo="0" devices="tripinfo_54" vType="DEFAULT_VEHTYPE" speedFactor="1.05" vaporized=""/>
    <tripinfo id="49" depart="220.00" departLane="top1B3_0" departPos="5.10" departSpeed="0.00" departDelay="0.00" arrival="314.00" arrivalLane="A3left3_0" arrivalPos="286.40" arrivalSpeed="10.73" duration="94.00" routeLength="879.60" waitingTime="1.00" waitingCount="1" stopTime="0.00" timeLoss="11.48" rerouteNo="0" devices="tripinfo_49" vType="DEFAULT_VEHTYPE" speedFactor="0.78" vaporized=""/>
    <tripinfo id="10" depart="62.00" departLane="bottom2C0_0" departPos="5.10" departSpeed="0.00" departDelay="0.00" arrival="321.00" arrivalLane="D2right2_0" arrivalPos="286.40" arrivalSpeed="12.91" duration="259.00" routeLength="1479.94" waitingTime="117.00" waitingCount="4" stopTime="0.00" timeLoss="143.82" rerouteNo="0" devices="tripinfo_10" vType="DEFAULT_VEHTYPE" speedFactor="0.93" vaporized=""/>
    <tripinfo id="20" depart="98.00" departLane="bottom2C0_0" departPos="5.10" departSpeed="0.00" departDelay="0.00" arrival="326.00" arrivalLane="D2right2_0" arrivalPos="286.40" arrivalSpeed="10.76" duration="228.00" routeLength="1479.94" waitingTime="74.00" waitingCount="3" stopTime="0.00" timeLoss="100.65" rerouteNo="0" devices="tripinfo_20" vType="DEFAULT_VEHTYPE" speedFactor="0.85" vaporized=""/>
    <tripinfo id="29" depart="118.00" departLane="right2D2_0" departPos="5.10" departSpeed="0.00" departDelay="0.00" arrival="328.00" arrivalLane="A3left3_0" arrivalPos="286.40" arrivalSpeed="13.24" duration="210.00" routeLength="1782.72" waitingTime="56.00" waitingCount="2" stopTime="0.00" timeLoss="76.76" rerouteNo="0" devices="tripinfo_29" vType="DEFAULT_VEHTYPE" speedFactor="0.98" vaporized=""/>
    <tripinfo id="38" depart="169.00" departLane="top3D3_0" departPos="5.10" departSpeed="0.00" departDelay="0.00" arrival="331.00" arrivalLane="A3left3_0" arrivalPos="286.40" arrivalSpeed="12.44" duration="162.00" routeLength="1479.94" waitingTime="28.00" waitingCount="2" stopTime="0.00" timeLoss="48.01" rerouteNo="0" devices="tripinfo_38" vType="DEFAULT_VEHTYPE" speedFactor="0.95" vaporized=""/>
    <tripinfo id="12" depart="74.00" departLane="top3D3_0" departPos="5.10" departSpeed="0.00" departDelay="0.00" arrival="340.00" arrivalLane="D0right0_0" arrivalPos="286.40" arrivalSpeed="12.86" duration="266.00" routeLength="1498.06" waitingTime="129.00" waitingCount="3" stopTime="0.00" timeLoss="153.60" rerouteNo="0" devices="tripinfo_12" vType="DEFAULT_VEHTYPE" speedFactor="0.97" vaporized=""/>
    <tripinfo id="9" depart="61.00" departLane="top1B3_0" departPos="5.10" departSpeed="0.00" departDelay="0.00" arrival="348.00" arrivalLane="D0right0_0" arrivalPos="286.40" arrivalSpeed="14.07" duration="287.00" routeLength="2095.69" waitingTime="104.00" waitingCount="5" stopTime="0.00" timeLoss="142.57" rerouteNo="0" devices="tripinfo_9" vType="DEFAULT_VEHTYPE" speedFactor="1.05" vaporized=""/>
    <tripinfo id="27" depart="114.00" departLane="bottom1B0_0" departPos="5.10" departSpeed="0.00" departDelay="0.00" arrival="370.00" arrivalLane="A3left3_0" arrivalPos="286.40" arrivalSpeed="12.10" duration="256.00" routeLength="1795.52" waitingTime="94.00" waitingCount="2" stopTime="0.00" timeLoss="119.98" rerouteNo="0" devices="tripinfo_27" vType="DEFAULT_VEHTYPE" speedFactor="0.95" vaporized=""/>
    <tripinfo id="42" depart="178.00" departLane="left0A0_0" departPos="5.10" departSpeed="0.00" departDelay="0.00" arrival="374.00" arrivalLane="D0bottom3_0" arrivalPos="286.40" arrivalSpeed="11.16" duration="196.00" routeLength="1477.24" waitingTime="47.00" waitingCount="3" stopTime="0.00" timeLoss="70.75" rerouteNo="0" devices="tripinfo_42" vType="DEFAULT_VEHTYPE" speedFactor="0.85" vaporized=""/>
    <tripinfo id="60" depart="278.00" departLane="right3D3_0" departPos="5.10" departSpeed="0.00" departDelay="0.00" arrival="376.00" arrivalLane="C3top2_0" arrivalPos="286.40" arrivalSpeed="14.14" duration="98.00" routeLength="876.90" waitingTime="19.00" waitingCount="2" stopTime="0.00" timeLoss="36.20" rerouteNo="0" devices="tripinfo_60" vType="DEFAULT_VEHTYPE" speedFactor="1.04" vaporized=""/>
    <tripinfo id="68" depart="307.00" departLane="bottom2C0_0" departPos="5.10" departSpeed="0.00" departDelay="0.00" arrival="376.00" arrivalLane="D0bottom3_1" arrivalPos="286.40" arrivalSpeed="15.84" duration="69.00" routeLength="858.56" waitingTime="1.00" waitingCount="1" stopTime="0.00" timeLoss="14.99" rerouteNo="0" devices="tripinfo_68" vType="DEFAULT_VEHTYPE" speedFactor="1.19" vaporized=""/>
    <tripinfo id="44" depart="197.00" departLane="left1A1_0" departPos="5.10" departSpeed="0.00" departDelay="0.00" arrival="377.00" arrivalLane="A2left2_0" arrivalPos="286.40" arrivalSpeed="15.51" duration="180.00" routeLength="894.86" waitingTime="105.00" waitingCount="2" stopTime="0.00" timeLoss="123.32" rerouteNo="0" devices="tripinfo_44" vType="DEFAULT_VEHTYPE" speedFactor="1.16" vaporized=""/>
    <tripinfo id="52" depart="229.00" departLane="right1D1_0" departPos="5.10" departSpeed="0.00" departDelay="0.00" arrival="377.00" arrivalLane="C0bottom2_0" arrivalPos="286.40" arrivalSpeed="14.65" duration="148.00" routeLength="1195.18" waitingTime="45.00" waitingCount="3" stopTime="0.00" timeLoss="70.65" rerouteNo="0" devices="tripinfo_52" vType="DEFAULT_VEHTYPE" speedFactor="1.12" vaporized=""/>
    <tripinfo id="26" depart="111.00" departLane="bottom0A0_0" departPos="5.10" departSpeed="0.00" departDelay="0.00" arrival="378.00" arrivalLane="B3top1_0" arrivalPos="286.40" arrivalSpeed="13.90" duration="267.00" routeLength="1782.72" waitingTime="110.00" waitingCount="3" stopTime="0.00" timeLoss="144.35" rerouteNo="0" devices="tripinfo_26" vType="DEFAULT_VEHTYPE" speedFactor="1.06" vaporized=""/>
    <tripinfo id="36" depart="154.00" departLane="left2A2_0" departPos="5.10" departSpeed="0.00" departDelay="0.00" arrival="398.00" arrivalLane="D3top3_0" arrivalPos="286.40" arrivalSpeed="14.29" duration="244.00" routeLength="1795.52" waitingTime="94.00" waitingCount="4" stopTime="0.00" timeLoss="124.34" rerouteNo="0" devices="tripinfo_36" vType="DEFAULT_VEHTYPE" speedFactor="1.09" vaporized=""/>
    <tripinfo id="48" depart="218.00" departLane="top2C3_0" departPos="5.10" departSpeed="0.00" departDelay="0.00" arrival="398.00" arrivalLane="D0bottom3_0" arrivalPos="286.40" arrivalSpeed="13.52" duration="180.00" routeLength="1782.59" waitingTime="31.00" waitingCount="3" stopTime="0.00" timeLoss="56.78" rerouteNo="0" devices="tripinfo_48" vType="DEFAULT_VEHTYPE" speedFactor="1.05" vaporized=""/>
    <tripinfo id="57" depart="268.00" departLane="bottom3D0_0" departPos="5.10" departSpeed="0.00" departDelay="0.00" arrival="404.00" arrivalLane="C0bottom2_0" arrivalPos="286.40" arrivalSpeed="10.82" duration="136.00" routeLength="894.86" waitingTime="42.00" waitingCount="2" stopTime="0.00" timeLoss="58.01" rerouteNo="0" devices="tripinfo_57" vType="DEFAULT_VEHTYPE" speedFactor="0.84" vaporized=""/>
    <tripinfo id="35" depart="146.00" departLane="top0A3_0" departPos="5.10" departSpeed="0.00" departDelay="0.00" arrival="405.00" arrivalLane="A0left0_0" arrivalPos="286.40" arrivalSpeed="12.47" duration="259.00" routeLength="1477.24" waitingTime="122.00" waitingCount="3" stopTime="0.00" timeLoss="144.97" rerouteNo="0" devices="tripinfo_35" vType="DEFAULT_VEHTYPE" speedFactor="0.94" vaporized=""/>
    <tripinfo id="45" depart="204.00" departLane="bottom1B0_0" departPos="5.10" departSpeed="0.00" departDelay="0.00" arrival="409.00" arrivalLane="B0bottom1_0" arrivalPos="286.40" arrivalSpeed="14.42" duration="205.00" routeLength="1748.75" waitingTime="51.00" waitingCount="4" stopTime="0.00" timeLoss="80.99" rerouteNo="0" devices="tripinfo_45" vType="DEFAULT_VEHTYPE" speedFactor="1.04" vaporized=""/>
    <tripinfo id="58" depart="275.00" departLane="bottom3D0_0" departPos="5.10" departSpeed="0.00" departDelay="0.00" arrival="410.00" arrivalLane="B0bottom1_1" arrivalPos="286.40" arrivalSpeed="14.47" duration="135.00" routeLength="1197.66" waitingTime="28.00" waitingCount="3" stopTime="0.00" timeLoss="54.85" rerouteNo="0" devices="tripinfo_58" vType="DEFAULT_VEHTYPE" speedFactor="1.10" vaporized=""/>
    <tripinfo id="28" depart="117.00" departLane="top0A3_0" departPos="5.10" departSpeed="0.00" departDelay="0.00" arrival="419.00" arrivalLane="B0bottom1_0" arrivalPos="286.40" arrivalSpeed="13.02" duration="302.00" routeLength="1782.59" waitingTime="142.00" waitingCount="3" stopTime="0.00" timeLoss="169.41" rerouteNo="0" devices="tripinfo_28" vType="DEFAULT_VEHTYPE" speedFactor="0.98" vaporized=""/>
    <tripinfo id="66" depart="297.00" departLane="bottom0A0_0" departPos="5.10" departSpeed="0.00" departDelay="0.00" arrival="426.00" arrivalLane="A1left1_0" arrivalPos="286.40" arrivalSpeed="12.89" duration="129.00" routeLength="897.72" waitingTime="47.00" waitingCount="1" stopTime="0.00" timeLoss="58.65" rerouteNo="0" devices="tripinfo_66" vType="DEFAULT_VEHTYPE" speedFactor="0.93" vaporized=""/>
    <tripinfo id="30" depart="137.00" departLane="top0A3_0" departPos="5.10" departSpeed="0.00" departDelay="0.00" arrival="430.00" arrivalLane="C0bottom2_0" arrivalPos="286.40" arrivalSpeed="14.45" duration="293.00" routeLength="2080.05" waitingTime="116.00" waitingCount="4" stopTime="0.00" timeLoss="148.07" rerouteNo="0" devices="tripinfo_30" vType="DEFAULT_VEHTYPE" speedFactor="1.04" vaporized=""/>
    <tripinfo id="59" depart="276.00" departLane="top2C3_0" departPos="5.10" departSpeed="0.00" departDelay="0.00" arrival="438.00" arrivalLane="D3right3_1" arrivalPos="286.40" arrivalSpeed="15.66" duration="162.00" routeLength="895.01" waitingTime="86.00" waitingCount="2" stopTime="0.00" timeLoss="104.97" rerouteNo="0" devices="tripinfo_59" vType="DEFAULT_VEHTYPE" speedFactor="1.14" vaporized=""/>
    <tripinfo id="18" depart="87.00" departLane="left0A0_0" departPos="5.10" departSpeed="0.00" departDelay="0.00" arrival="442.00" arrivalLane="D3right3_0" arrivalPos="286.40" arrivalSpeed="11.67" duration="355.00" routeLength="2380.22" waitingTime="121.00" waitingCount="5" stopTime="0.00" timeLoss="160.96" rerouteNo="0" devices="tripinfo_18" vType="DEFAULT_VEHTYPE" speedFactor="0.89" vaporized=""/>
    <tripinfo id="46" depart="211.00" departLane="bottom1B0_0" departPos="5.10" departSpeed="0.00" departDelay="0.00" arrival="450.00" arrivalLane="C3top2_0" arrivalPos="286.40" arrivalSpeed="12.57" duration="239.00" routeLength="1782.72" waitingTime="74.00" waitingCount="4" stopTime="0.00" timeLoss="105.18" rerouteNo="0" devices="tripinfo_46" vType="DEFAULT_VEHTYPE" speedFactor="0.97" vaporized=""/>
    <tripinfo id="17" depart="85.00" departLane="bottom2C0_0" departPos="5.10" departSpeed="0.00" departDelay="0.00" arrival="451.00" arrivalLane="D3right3_0" arrivalPos="286.40" arrivalSpeed="15.23" duration="366.00" routeLength="1780.11" waitingTime="221.00" waitingCount="4" stopTime="0.00" timeLoss="252.53" rerouteNo="0" devices="tripinfo_17" vType="DEFAULT_VEHTYPE" speedFactor="1.13" vaporized=""/>
    <tripinfo id="71" depart="324.00" departLane="bottom0A0_0" departPos="5.10" departSpeed="0.00" departDelay="0.00" arrival="455.00" arrivalLane="A1left1_0" arrivalPos="286.40" arrivalSpeed="15.98" duration="131.00" routeLength="897.72" waitingTime="55.00" waitingCount="2" stopTime="0.00" timeLoss="77.00" rerouteNo="0" devices="tripinfo_71" vType="DEFAULT_VEHTYPE" speedFactor="1.22" vaporized=""/>
    <tripinfo id="34" depart="143.00" departLane="left1A1_0" departPos="5.10" departSpeed="0.00" departDelay="0.00" arrival="456.00" arrivalLane="D3top3_0" arrivalPos="286.40" arrivalSpeed="15.15" duration="313.00" routeLength="2095.69" waitingTime="130.00" waitingCount="3" stopTime="0.00" timeLoss="183.04" rerouteNo="0" devices="tripinfo_34" vType="DEFAULT_VEHTYPE" speedFactor="1.16" vaporized=""/>
    <tripinfo id="56" depart="259.00" departLane="left0A0_0" departPos="5.10" departSpeed="0.00" departDelay="0.00" arrival="457.00" arrivalLane="A3left3_0" arrivalPos="286.40" arrivalSpeed="12.17" duration="198.00" routeLength="1497.83" waitingTime="56.00" waitingCount="3" stopTime="0.00" timeLoss="78.32" rerouteNo="0" devices="tripinfo_56" vType="DEFAULT_VEHTYPE" speedFactor="0.91" vaporized=""/>
    <tripinfo id="62" depart="283.00" departLane="right3D3_0" departPos="5.10" departSpeed="0.00" departDelay="0.00" arrival="457.00" arrivalLane="D1right1_0" arrivalPos="286.40" arrivalSpeed="15.45" duration="174.00" routeLength="1197.66" waitingTime="80.00" waitingCount="2" stopTime="0.00" timeLoss="97.36" rerouteNo="0" devices="tripinfo_62" vType="DEFAULT_VEHTYPE" speedFactor="1.15" vaporized=""/>
    <tripinfo id="64" depart="286.00" departLane="left0A0_0" departPos="5.10" departSpeed="0.00" departDelay="0.00" arrival="457.00" arrivalLane="A2left2_0" arrivalPos="286.40" arrivalSpeed="14.72" duration="171.00" routeLength="1197.66" waitingTime="68.00" waitingCount="3" stopTime="0.00" timeLoss="91.42" rerouteNo="0" devices="tripinfo_64" vType="DEFAULT_VEHTYPE" speedFactor="1.10" vaporized=""/>
    <tripinfo id="50" depart="222.00" departLane="top2C3_0" departPos="5.10" departSpeed="0.00" departDelay="0.00" arrival="459.00" arrivalLane="C3top2_1" arrivalPos="286.40" arrivalSpeed="15.40" duration="237.00" routeLength="1748.75" waitingTime="99.00" waitingCount="3" stopTime="0.00" timeLoss="126.06" rerouteNo="0" devices="tripinfo_50" vType="DEFAULT_VEHTYPE" speedFactor="1.16" vaporized=""/>
    <tripinfo id="55" depart="257.00" departLane="left3A3_0" departPos="5.10" departSpeed="0.00" departDelay="0.00" arrival="460.00" arrivalLane="C3top2_0" arrivalPos="286.40" arrivalSpeed="12.89" duration="203.00" routeLength="1197.89" waitingTime="103.00" waitingCount="1" stopTime="0.00" timeLoss="114.56" rerouteNo="0" devices="tripinfo_55" vType="DEFAULT_VEHTYPE" speedFactor="0.98" vaporized=""/>
    <tripinfo id="51" depart="228.00" departLane="top0A3_0" departPos="5.10" departSpeed="0.00" departDelay="0.00" arrival="468.00" arrivalLane="A1left1_0" arrivalPos="286.40" arrivalSpeed="12.74" duration="240.00" routeLength="1177.07" waitingTime="129.00" waitingCount="3" stopTime="0.00" timeLoss="152.94" rerouteNo="0" devices="tripinfo_51" vType="DEFAULT_VEHTYPE" speedFactor="0.99" vaporized=""/>
    <tripinfo id="47" depart="212.00" departLane="right3D3_0" departPos="5.10" departSpeed="0.00" departDelay="0.00" arrival="473.00" arrivalLane="B0bottom1_0" arrivalPos="286.40" arrivalSpeed="11.76" duration="261.00" routeLength="2095.69" waitingTime="57.00" waitingCount="3" stopTime="0.00" timeLoss="83.99" rerouteNo="0" devices="tripinfo_47" vType="DEFAULT_VEHTYPE" speedFactor="0.86" vaporized=""/>
    <tripinfo id="39" depart="173.00" departLane="top1B3_0" departPos="5.10" departSpeed="0.00" departDelay="0.00" arrival="489.00" arrivalLane="A0left0_0" arrivalPos="286.40" arrivalSpeed="14.51" duration="316.00" routeLength="1780.11" waitingTime="157.00" waitingCount="5" stopTime="0.00" timeLoss="191.91" rerouteNo="0" devices="tripinfo_39" vType="DEFAULT_VEHTYPE" speedFactor="1.05" vaporized=""/>
    <tripinfo id="41" depart="176.00" departLane="right1D1_0" departPos="5.10" departSpeed="0.00" departDelay="0.00" arrival="489.00" arrivalLane="A3left3_0" arrivalPos="286.40" arrivalSpeed="14.05" duration="313.00" routeLength="2082.76" waitingTime="122.00" waitingCount="5" stopTime="0.00" timeLoss="164.38" rerouteNo="0" devices="tripinfo_41" vType="DEFAULT_VEHTYPE" speedFactor="1.02" vaporized=""/>
    <tripinfo id="73" depart="329.00" departLane="bottom3D0_0" departPos="5.10" departSpeed="0.00" departDelay="0.00" arrival="490.00" arrivalLane="D0bottom3_0" arrivalPos="286.40" arrivalSpeed="13.57" duration="161.00" routeLength="1745.91" waitingTime="9.00" waitingCount="4" stopTime="0.00" timeLoss="40.95" rerouteNo="0" devices="tripinfo_73" vType="DEFAULT_VEHTYPE" speedFactor="1.07" vaporized=""/>
    <tripinfo id="90" depart="422.00" departLane="left3A3_0" departPos="5.10" departSpeed="0.00" departDelay="1.00" arrival="490.00" arrivalLane="B3top1_0" arrivalPos="286.40" arrivalSpeed="14.77" duration="68.00" routeLength="897.72" waitingTime="0.00" waitingCount="0" stopTime="0.00" timeLoss="7.43" rerouteNo="0" devices="tripinfo_90" vType="DEFAULT_VEHTYPE" speedFactor="1.08" vaporized=""/>
    <tripinfo id="87" depart="408.00" departLane="bottom1B0_0" departPos="5.10" departSpeed="0.00" departDelay="0.00" arrival="495.00" arrivalLane="C0bottom2_0" arrivalPos="286.40" arrivalSpeed="11.44" duration="87.00" routeLength="858.56" waitingTime="2.00" waitingCount="2" stopTime="0.00" timeLoss="18.03" rerouteNo="0" devices="tripinfo_87" vType="DEFAULT_VEHTYPE" speedFactor="0.92" vaporized=""/>
    <tripinfo id="75" depart="349.00" departLane="top0A3_0" departPos="5.10" departSpeed="0.00" departDelay="0.00" arrival="498.00" arrivalLane="A0left0_0" arrivalPos="286.40" arrivalSpeed="12.96" duration="149.00" routeLength="1477.24" waitingTime="9.00" waitingCount="2" stopTime="0.00" timeLoss="42.50" rerouteNo="0" devices="tripinfo_75" vType="DEFAULT_VEHTYPE" speedFactor="1.01" vaporized=""/>
    <tripinfo id="89" depart="419.00" departLane="left3A3_0" departPos="5.10" departSpeed="0.00" departDelay="0.00" arrival="517.00" arrivalLane="A1left1_0" arrivalPos="286.40" arrivalSpeed="13.82" duration="98.00" routeLength="1161.43" waitingTime="1.00" waitingCount="1" stopTime="0.00" timeLoss="15.62" rerouteNo="0" devices="tripinfo_89" vType="DEFAULT_VEHTYPE" speedFactor="1.04" vaporized=""/>
    <tripinfo id="80" depart="388.00" departLane="top1B3_0" departPos="5.10" departSpeed="0.00" departDelay="0.00" arrival="519.00" arrivalLane="C3top2_0" arrivalPos="286.40" arrivalSpeed="14.53" duration="131.00" routeLength="894.86" waitingTime="59.00" waitingCount="1" stopTime="0.00" timeLoss="69.85" rerouteNo="0" devices="tripinfo_80" vType="DEFAULT_VEHTYPE" speedFactor="1.07" vaporized=""/>
    <tripinfo id="3" depart="27.00" departLane="right3D3_0" departPos="5.10" departSpeed="0.00" departDelay="0.00" arrival="520.00" arrivalLane="A0bottom0_0" arrivalPos="286.40" arrivalSpeed="13.43" duration="493.00" routeLength="2395.86" waitingTime="269.00" waitingCount="6" stopTime="0.00" timeLoss="316.20" rerouteNo="0" devices="tripinfo_3" vType="DEFAULT_VEHTYPE" speedFactor="0.98" vaporized=""/>
    <tripinfo id="92" depart="426.00" departLane="left1A1_0" departPos="5.10" departSpeed="0.00" departDelay="0.00" arrival="520.00" arrivalLane="A0bottom0_1" arrivalPos="286.40" arrivalSpeed="14.38" duration="94.00" routeLength="879.60" waitingTime="17.00" waitingCount="2" stopTime="0.00" timeLoss="35.14" rerouteNo="0" devices="tripinfo_92" vType="DEFAULT_VEHTYPE" speedFactor="1.10" vaporized=""/>
    <tripinfo id="94" depart="430.00" departLane="right0D0_0" departPos="5.10" departSpeed="0.00" departDelay="0.00" arrival="523.00" arrivalLane="D1right1_0" arrivalPos="286.40" arrivalSpeed="11.37" duration="93.00" routeLength="858.56" waitingTime="2.00" waitingCount="2" stopTime="0.00" timeLoss="16.81" rerouteNo="0" devices="tripinfo_94" vType="DEFAULT_VEHTYPE" speedFactor="0.83" vaporized=""/>