<?xml version="1.0" encoding="UTF-8"?>

<!-- generated on 12/21/21 13:49:46 by Eclipse SUMO sumo Version 1.7.0
<configuration xmlns:xsi="http://www.w3.org/2001/XMLSchema-instance" xsi:noNamespaceSchemaLocation="http://sumo.dlr.de/xsd/sumoConfiguration.xsd">

    <input>
        <net-file value="C:\Users\longs\Desktop\RESCO-main\environments\grid4x4\grid4x4.net.xml"/>
        <route-files value="C:\Users\longs\Desktop\RESCO-main\environments\grid4x4\grid4x4_4.rou.xml"/>
    </input>

    <output>
        <tripinfo-output value="C:\Users\longs\Desktop\RESCO-main\logs\IDQN-tr1-grid4x4-0-drqlong-delaydiff_pressure0\tripinfo_4.xml"/>
        <tripinfo-output.write-unfinished value="true"/>
    </output>

    <processing>
        <time-to-teleport value="-1"/>
    </processing>

    <report>
        <no-warnings value="true"/>
        <no-step-log value="true"/>
    </report>

    <traci_server>
        <remote-port value="61692"/>
    </traci_server>

    <random_number>
        <random value="true"/>
    </random_number>

</configuration>
-->

<tripinfos xmlns:xsi="http://www.w3.org/2001/XMLSchema-instance" xsi:noNamespaceSchemaLocation="http://sumo.dlr.de/xsd/tripinfo_file.xsd">
    <tripinfo id="0" depart="4.00" departLane="bottom0A0_0" departPos="5.10" departSpeed="0.00" departDelay="0.00" arrival="78.00" arrivalLane="B0bottom1_0" arrivalPos="286.40" arrivalSpeed="13.36" duration="74.00" routeLength="858.56" waitingTime="0.00" waitingCount="0" stopTime="0.00" timeLoss="11.33" rerouteNo="0" devices="tripinfo_0" vType="DEFAULT_VEHTYPE" speedFactor="1.01" vaporized=""/>
    <tripinfo id="14" depart="60.00" departLane="bottom0A0_0" departPos="5.10" departSpeed="0.00" departDelay="0.00" arrival="140.00" arrivalLane="B0bottom1_0" arrivalPos="286.40" arrivalSpeed="14.08" duration="80.00" routeLength="858.56" waitingTime="2.00" waitingCount="2" stopTime="0.00" timeLoss="19.26" rerouteNo="0" devices="tripinfo_14" vType="DEFAULT_VEHTYPE" speedFactor="1.04" vaporized=""/>
    <tripinfo id="16" depart="67.00" departLane="right3D3_0" departPos="5.10" departSpeed="0.00" departDelay="0.00" arrival="176.00" arrivalLane="B3top1_0" arrivalPos="286.40" arrivalSpeed="11.41" duration="109.00" routeLength="1177.07" waitingTime="1.00" waitingCount="1" stopTime="0.00" timeLoss="13.61" rerouteNo="0" devices="tripinfo_16" vType="DEFAULT_VEHTYPE" speedFactor="0.90" vaporized=""/>
    <tripinfo id="7" depart="21.00" departLane="top2C3_0" departPos="5.10" departSpeed="0.00" departDelay="0.00" arrival="179.00" arrivalLane="C3top2_0" arrivalPos="286.40" arrivalSpeed="13.44" duration="158.00" routeLength="1748.75" waitingTime="6.00" waitingCount="3" stopTime="0.00" timeLoss="34.17" rerouteNo="0" devices="tripinfo_7" vType="DEFAULT_VEHTYPE" speedFactor="1.03" vaporized=""/>
    <tripinfo id="17" depart="82.00" departLane="top1B3_0" departPos="5.10" departSpeed="0.00" departDelay="0.00" arrival="179.00" arrivalLane="A3left3_0" arrivalPos="286.40" arrivalSpeed="10.49" duration="97.00" routeLength="879.60" waitingTime="1.00" waitingCount="1" stopTime="0.00" timeLoss="14.40" rerouteNo="0" devices="tripinfo_17" vType="DEFAULT_VEHTYPE" speedFactor="0.78" vaporized=""/>
    <tripinfo id="10" depart="34.00" departLane="top0A3_0" departPos="5.10" departSpeed="0.00" departDelay="0.00" arrival="183.00" arrivalLane="A1left1_0" arrivalPos="286.40" arrivalSpeed="11.40" duration="149.00" routeLength="1177.07" waitingTime="29.00" waitingCount="1" stopTime="0.00" timeLoss="45.04" rerouteNo="0" devices="tripinfo_10" vType="DEFAULT_VEHTYPE" speedFactor="0.83" vaporized=""/>
    <tripinfo id="4" depart="17.00" departLane="left1A1_0" departPos="5.10" departSpeed="0.00" departDelay="0.00" arrival="189.00" arrivalLane="A1left1_0" arrivalPos="286.40" arrivalSpeed="13.67" duration="172.00" routeLength="1748.75" waitingTime="14.00" waitingCount="3" stopTime="0.00" timeLoss="44.67" rerouteNo="0" devices="tripinfo_4" vType="DEFAULT_VEHTYPE" speedFactor="1.01" vaporized=""/>
    <tripinfo id="9" depart="28.00" departLane="bottom2C0_0" departPos="5.10" departSpeed="0.00" departDelay="0.00" arrival="210.00" arrivalLane="D1right1_1" arrivalPos="286.40" arrivalSpeed="14.12" duration="182.00" routeLength="1179.77" waitingTime="75.00" waitingCount="3" stopTime="0.00" timeLoss="98.75" rerouteNo="0" devices="tripinfo_9" vType="DEFAULT_VEHTYPE" speedFactor="1.03" vaporized=""/>
    <tripinfo id="3" depart="13.00" departLane="bottom2C0_0" departPos="5.10" departSpeed="0.00" departDelay="0.00" arrival="214.00" arrivalLane="D1right1_0" arrivalPos="286.40" arrivalSpeed="10.42" duration="201.00" routeLength="1179.77" waitingTime="77.00" waitingCount="2" stopTime="0.00" timeLoss="96.91" rerouteNo="0" devices="tripinfo_3" vType="DEFAULT_VEHTYPE" speedFactor="0.83" vaporized=""/>
    <tripinfo id="18" depart="83.00" departLane="right2D2_0" departPos="5.10" departSpeed="0.00" departDelay="0.00" arrival="223.00" arrivalLane="D1right1_0" arrivalPos="286.40" arrivalSpeed="13.64" duration="140.00" routeLength="894.86" waitingTime="62.00" waitingCount="1" stopTime="0.00" timeLoss="74.37" rerouteNo="0" devices="tripinfo_18" vType="DEFAULT_VEHTYPE" speedFactor="1.01" vaporized=""/>
    <tripinfo id="41" depart="174.00" departLane="top3D3_0" departPos="5.10" departSpeed="0.00" departDelay="0.00" arrival="223.00" arrivalLane="D3right3_0" arrivalPos="286.40" arrivalSpeed="13.24" duration="49.00" routeLength="597.55" waitingTime="0.00" waitingCount="0" stopTime="0.00" timeLoss="5.36" rerouteNo="0" devices="tripinfo_41" vType="DEFAULT_VEHTYPE" speedFactor="1.00" vaporized=""/>
    <tripinfo id="19" depart="83.00" departLane="left0A0_0" departPos="5.10" departSpeed="0.00" departDelay="0.00" arrival="226.00" arrivalLane="B0bottom1_0" arrivalPos="286.40" arrivalSpeed="14.78" duration="143.00" routeLength="876.90" waitingTime="64.00" waitingCount="2" stopTime="0.00" timeLoss="82.42" rerouteNo="0" devices="tripinfo_19" vType="DEFAULT_VEHTYPE" speedFactor="1.07" vaporized=""/>
    <tripinfo id="40" depart="161.00" departLane="bottom2C0_0" departPos="5.10" departSpeed="0.00" departDelay="0.00" arrival="239.00" arrivalLane="D0bottom3_0" arrivalPos="286.40" arrivalSpeed="13.25" duration="78.00" routeLength="858.56" waitingTime="1.00" waitingCount="1" stopTime="0.00" timeLoss="14.68" rerouteNo="0" devices="tripinfo_40" vType="DEFAULT_VEHTYPE" speedFactor="1.00" vaporized=""/>
    <tripinfo id="22" depart="98.00" departLane="right2D2_0" departPos="5.10" departSpeed="0.00" departDelay="0.00" arrival="279.00" arrivalLane="D3top3_0" arrivalPos="286.40" arrivalSpeed="14.45" duration="181.00" routeLength="879.60" waitingTime="101.00" waitingCount="2" stopTime="0.00" timeLoss="118.64" rerouteNo="0" devices="tripinfo_22" vType="DEFAULT_VEHTYPE" speedFactor="1.04" vaporized=""/>
    <tripinfo id="5" depart="18.00" departLane="right0D0_0" departPos="5.10" departSpeed="0.00" departDelay="0.00" arrival="280.00" arrivalLane="A2left2_0" arrivalPos="286.40" arrivalSpeed="12.91" duration="262.00" routeLength="2082.76" waitingTime="76.00" waitingCount="3" stopTime="0.00" timeLoss="105.83" rerouteNo="0" devices="tripinfo_5" vType="DEFAULT_VEHTYPE" speedFactor="0.97" vaporized=""/>
    <tripinfo id="6" depart="20.00" departLane="bottom0A0_0" departPos="5.10" departSpeed="0.00" departDelay="0.00" arrival="288.00" arrivalLane="A2left2_0" arrivalPos="286.40" arrivalSpeed="11.26" duration="268.00" routeLength="1197.89" waitingTime="153.00" waitingCount="1" stopTime="0.00" timeLoss="169.32" rerouteNo="0" devices="tripinfo_6" vType="DEFAULT_VEHTYPE" speedFactor="0.89" vaporized=""/>
    <tripinfo id="20" depart="90.00" departLane="right3D3_0" departPos="5.10" departSpeed="0.00" departDelay="0.00" arrival="289.00" arrivalLane="D0bottom3_0" arrivalPos="286.40" arrivalSpeed="13.06" duration="199.00" routeLength="1495.35" waitingTime="78.00" waitingCount="1" stopTime="0.00" timeLoss="91.14" rerouteNo="0" devices="tripinfo_20" vType="DEFAULT_VEHTYPE" speedFactor="1.01" vaporized=""/>
    <tripinfo id="52" depart="239.00" departLane="right3D3_0" departPos="5.10" departSpeed="0.00" departDelay="0.00" arrival="289.00" arrivalLane="D3top3_0" arrivalPos="286.40" arrivalSpeed="13.48" duration="50.00" routeLength="576.73" waitingTime="0.00" waitingCount="0" stopTime="0.00" timeLoss="7.14" rerouteNo="0" devices="tripinfo_52" vType="DEFAULT_VEHTYPE" speedFactor="1.00" vaporized=""/>
    <tripinfo id="8" depart="27.00" departLane="top2C3_0" departPos="5.10" departSpeed="0.00" departDelay="0.00" arrival="291.00" arrivalLane="D0bottom3_0" arrivalPos="286.40" arrivalSpeed="13.43" duration="264.00" routeLength="1782.59" waitingTime="98.00" waitingCount="5" stopTime="0.00" timeLoss="133.46" rerouteNo="0" devices="tripinfo_8" vType="DEFAULT_VEHTYPE" speedFactor="1.00" vaporized=""/>
    <tripinfo id="11" depart="35.00" departLane="top2C3_0" departPos="5.10" departSpeed="0.00" departDelay="0.00" arrival="293.00" arrivalLane="D0bottom3_0" arrivalPos="286.40" arrivalSpeed="12.51" duration="258.00" routeLength="1782.59" waitingTime="83.00" waitingCount="4" stopTime="0.00" timeLoss="126.73" rerouteNo="0" devices="tripinfo_11" vType="DEFAULT_VEHTYPE" speedFactor="0.99" vaporized=""/>
    <tripinfo id="42" depart="184.00" departLane="top0A3_0" departPos="5.10" departSpeed="0.00" departDelay="0.00" arrival="297.00" arrivalLane="C3top2_0" arrivalPos="286.40" arrivalSpeed="15.52" duration="113.00" routeLength="1197.66" waitingTime="16.00" waitingCount="2" stopTime="0.00" timeLoss="35.58" rerouteNo="0" devices="tripinfo_42" vType="DEFAULT_VEHTYPE" speedFactor="1.13" vaporized=""/>
    <tripinfo id="30" depart="128.00" departLane="left3A3_0" departPos="5.10" departSpeed="0.00" departDelay="0.00" arrival="303.00" arrivalLane="A0bottom0_0" arrivalPos="286.40" arrivalSpeed="12.33" duration="175.00" routeLength="1479.94" waitingTime="42.00" waitingCount="2" stopTime="0.00" timeLoss="65.03" rerouteNo="0" devices="tripinfo_30" vType="DEFAULT_VEHTYPE" speedFactor="0.98" vaporized=""/>
    <tripinfo id="12" depart="37.00" departLane="right3D3_0" departPos="5.10" departSpeed="0.00" departDelay="0.00" arrival="306.00" arrivalLane="B0bottom1_0" arrivalPos="286.40" arrivalSpeed="14.72" duration="269.00" routeLength="2095.69" waitingTime="106.00" waitingCount="2" stopTime="0.00" timeLoss="135.67" rerouteNo="0" devices="tripinfo_12" vType="DEFAULT_VEHTYPE" speedFactor="1.14" vaporized=""/>
    <tripinfo id="27" depart="119.00" departLane="right2D2_0" departPos="5.10" departSpeed="0.00" departDelay="0.00" arrival="317.00" arrivalLane="A1left1_0" arrivalPos="286.40" arrivalSpeed="15.43" duration="198.00" routeLength="1782.59" waitingTime="49.00" waitingCount="4" stopTime="0.00" timeLoss="83.21" rerouteNo="0" devices="tripinfo_27" vType="DEFAULT_VEHTYPE" speedFactor="1.13" vaporized=""/>
    <tripinfo id="45" depart="193.00" departLane="left3A3_0" departPos="5.10" departSpeed="0.00" departDelay="0.00" arrival="318.00" arrivalLane="A0bottom0_0" arrivalPos="286.40" arrivalSpeed="14.54" duration="125.00" routeLength="1479.94" waitingTime="8.00" waitingCount="1" stopTime="0.00" timeLoss="23.20" rerouteNo="0" devices="tripinfo_45" vType="DEFAULT_VEHTYPE" speedFactor="1.06" vaporized=""/>
    <tripinfo id="23" depart="98.00" departLane="bottom3D0_0" departPos="5.10" departSpeed="0.00" departDelay="0.00" arrival="320.00" arrivalLane="C3top2_0" arrivalPos="286.40" arrivalSpeed="12.36" duration="222.00" routeLength="1782.59" waitingTime="56.00" waitingCount="4" stopTime="0.00" timeLoss="88.69" rerouteNo="0" devices="tripinfo_23" vType="DEFAULT_VEHTYPE" speedFactor="0.97" vaporized=""/>
    <tripinfo id="31" depart="135.00" departLane="bottom3D0_0" departPos="5.10" departSpeed="0.00" departDelay="0.00" arrival="337.00" arrivalLane="B3top1_0" arrivalPos="286.40" arrivalSpeed="14.52" duration="202.00" routeLength="2080.05" waitingTime="34.00" waitingCount="4" stopTime="0.00" timeLoss="65.52" rerouteNo="0" devices="tripinfo_31" vType="DEFAULT_VEHTYPE" speedFactor="1.10" vaporized=""/>
    <tripinfo id="51" depart="238.00" departLane="left1A1_0" departPos="5.10" departSpeed="0.00" departDelay="0.00" arrival="341.00" arrivalLane="B0bottom1_1" arrivalPos="286.40" arrivalSpeed="14.30" duration="103.00" routeLength="1179.77" waitingTime="10.00" waitingCount="1" stopTime="0.00" timeLoss="25.57" rerouteNo="0" devices="tripinfo_51" vType="DEFAULT_VEHTYPE" speedFactor="1.11" vaporized=""/>
    <tripinfo id="33" depart="136.00" departLane="top1B3_0" departPos="5.10" departSpeed="0.00" departDelay="0.00" arrival="343.00" arrivalLane="B0bottom1_0" arrivalPos="286.40" arrivalSpeed="11.08" duration="207.00" routeLength="1495.58" waitingTime="54.00" waitingCount="3" stopTime="0.00" timeLoss="79.96" rerouteNo="0" devices="tripinfo_33" vType="DEFAULT_VEHTYPE" speedFactor="0.85" vaporized=""/>
    <tripinfo id="35" depart="138.00" departLane="left3A3_0" departPos="5.10" departSpeed="0.00" departDelay="0.00" arrival="343.00" arrivalLane="A3left3_0" arrivalPos="286.40" arrivalSpeed="11.14" duration="205.00" routeLength="1748.75" waitingTime="25.00" waitingCount="2" stopTime="0.00" timeLoss="51.46" rerouteNo="0" devices="tripinfo_35" vType="DEFAULT_VEHTYPE" speedFactor="0.84" vaporized=""/>
    <tripinfo id="50" depart="236.00" departLane="top3D3_0" departPos="5.10" departSpeed="0.00" departDelay="0.00" arrival="347.00" arrivalLane="D2right2_0" arrivalPos="286.40" arrivalSpeed="10.84" duration="111.00" routeLength="897.72" waitingTime="12.00" waitingCount="2" stopTime="0.00" timeLoss="26.74" rerouteNo="0" devices="tripinfo_50" vType="DEFAULT_VEHTYPE" speedFactor="0.78" vaporized=""/>
    <tripinfo id="44" depart="193.00" departLane="left0A0_0" departPos="5.10" departSpeed="0.00" departDelay="0.00" arrival="349.00" arrivalLane="D0bottom3_0" arrivalPos="286.40" arrivalSpeed="13.33" duration="156.00" routeLength="1477.24" waitingTime="23.00" waitingCount="2" stopTime="0.00" timeLoss="44.66" rerouteNo="0" devices="tripinfo_44" vType="DEFAULT_VEHTYPE" speedFactor="0.96" vaporized=""/>
    <tripinfo id="56" depart="261.00" departLane="top0A3_0" departPos="5.10" departSpeed="0.00" departDelay="0.00" arrival="349.00" arrivalLane="A2left2_0" arrivalPos="286.40" arrivalSpeed="12.61" duration="88.00" routeLength="876.90" waitingTime="4.00" waitingCount="2" stopTime="0.00" timeLoss="24.00" rerouteNo="0" devices="tripinfo_56" vType="DEFAULT_VEHTYPE" speedFactor="1.00" vaporized=""/>
    <tripinfo id="43" depart="186.00" departLane="bottom0A0_0" departPos="5.10" departSpeed="0.00" departDelay="0.00" arrival="355.00" arrivalLane="D0bottom3_0" arrivalPos="286.40" arrivalSpeed="13.06" duration="169.00" routeLength="1461.60" waitingTime="29.00" waitingCount="4" stopTime="0.00" timeLoss="59.75" rerouteNo="0" devices="tripinfo_43" vType="DEFAULT_VEHTYPE" speedFactor="0.98" vaporized=""/>
    <tripinfo id="15" depart="63.00" departLane="bottom3D0_0" departPos="5.10" departSpeed="0.00" departDelay="0.00" arrival="357.00" arrivalLane="A2left2_0" arrivalPos="286.40" arrivalSpeed="12.98" duration="294.00" routeLength="2095.69" waitingTime="102.00" waitingCount="4" stopTime="0.00" timeLoss="140.47" rerouteNo="0" devices="tripinfo_15" vType="DEFAULT_VEHTYPE" speedFactor="0.99" vaporized=""/>
    <tripinfo id="2" depart="10.00" departLane="top3D3_0" departPos="5.10" departSpeed="0.00" departDelay="0.00" arrival="358.00" arrivalLane="A0left0_0" arrivalPos="286.40" arrivalSpeed="14.15" duration="348.00" routeLength="2380.45" waitingTime="136.00" waitingCount="6" stopTime="0.00" timeLoss="186.49" rerouteNo="0" devices="tripinfo_2" vType="DEFAULT_VEHTYPE" speedFactor="1.07" vaporized=""/>
    <tripinfo id="34" depart="138.00" departLane="bottom3D0_0" departPos="5.10" departSpeed="0.00" departDelay="2.00" arrival="358.00" arrivalLane="D3right3_0" arrivalPos="286.40" arrivalSpeed="13.57" duration="220.00" routeLength="1477.24" waitingTime="88.00" waitingCount="3" stopTime="0.00" timeLoss="117.18" rerouteNo="0" devices="tripinfo_34" vType="DEFAULT_VEHTYPE" speedFactor="1.04" vaporized=""/>
    <tripinfo id="46" depart="204.00" departLane="bottom3D0_0" departPos="5.10" departSpeed="0.00" departDelay="0.00" arrival="365.00" arrivalLane="D3right3_0" arrivalPos="286.40" arrivalSpeed="14.02" duration="161.00" routeLength="1477.24" waitingTime="33.00" waitingCount="2" stopTime="0.00" timeLoss="57.71" rerouteNo="0" devices="tripinfo_46" vType="DEFAULT_VEHTYPE" speedFactor="1.04" vaporized=""/>
    <tripinfo id="29" depart="122.00" departLane="right2D2_0" departPos="5.10" departSpeed="0.00" departDelay="0.00" arrival="379.00" arrivalLane="A3top0_0" arrivalPos="286.40" arrivalSpeed="13.56" duration="257.00" routeLength="1780.11" waitingTime="98.00" waitingCount="4" stopTime="0.00" timeLoss="131.75" rerouteNo="0" devices="tripinfo_29" vType="DEFAULT_VEHTYPE" speedFactor="1.03" vaporized=""/>
    <tripinfo id="26" depart="108.00" departLane="top2C3_0" departPos="5.10" departSpeed="0.00" departDelay="0.00" arrival="380.00" arrivalLane="D0bottom3_0" arrivalPos="286.40" arrivalSpeed="9.52" duration="272.00" routeLength="1782.59" waitingTime="62.00" waitingCount="4" stopTime="0.00" timeLoss="93.38" rerouteNo="0" devices="tripinfo_26" vType="DEFAULT_VEHTYPE" speedFactor="0.73" vaporized=""/>
    <tripinfo id="57" depart="264.00" departLane="top0A3_0" departPos="5.10" departSpeed="0.00" departDelay="1.00" arrival="381.00" arrivalLane="C3top2_0" arrivalPos="286.40" arrivalSpeed="13.32" duration="117.00" routeLength="1197.66" waitingTime="13.00" waitingCount="2" stopTime="0.00" timeLoss="33.23" rerouteNo="0" devices="tripinfo_57" vType="DEFAULT_VEHTYPE" speedFactor="1.05" vaporized=""/>
    <tripinfo id="1" depart="9.00" departLane="left3A3_0" departPos="5.10" departSpeed="0.00" departDelay="0.00" arrival="408.00" arrivalLane="D2right2_0" arrivalPos="286.40" arrivalSpeed="14.03" duration="399.00" routeLength="1782.72" waitingTime="237.00" waitingCount="5" stopTime="0.00" timeLoss="276.52" rerouteNo="0" devices="tripinfo_1" vType="DEFAULT_VEHTYPE" speedFactor="1.06" vaporized=""/>
    <tripinfo id="49" depart="229.00" departLane="top2C3_0" departPos="5.10" departSpeed="0.00" departDelay="0.00" arrival="409.00" arrivalLane="A3left3_0" arrivalPos="286.40" arrivalSpeed="13.55" duration="180.00" routeLength="1179.77" waitingTime="81.00" waitingCount="2" stopTime="0.00" timeLoss="96.32" rerouteNo="0" devices="tripinfo_49" vType="DEFAULT_VEHTYPE" speedFactor="1.03" vaporized=""/>
    <tripinfo id="21" depart="97.00" departLane="top0A3_0" departPos="5.10" departSpeed="0.00" departDelay="0.00" arrival="411.00" arrivalLane="D1right1_0" arrivalPos="286.40" arrivalSpeed="11.14" duration="314.00" routeLength="2095.69" waitingTime="106.00" waitingCount="3" stopTime="0.00" timeLoss="133.85" rerouteNo="0" devices="tripinfo_21" vType="DEFAULT_VEHTYPE" speedFactor="0.84" vaporized=""/>
    <tripinfo id="25" depart="105.00" departLane="left3A3_0" departPos="5.10" departSpeed="0.00" departDelay="0.00" arrival="413.00" arrivalLane="D2right2_0" arrivalPos="286.40" arrivalSpeed="12.37" duration="308.00" routeLength="1782.72" waitingTime="129.00" waitingCount="5" stopTime="0.00" timeLoss="166.37" rerouteNo="0" devices="tripinfo_25" vType="DEFAULT_VEHTYPE" speedFactor="0.92" vaporized=""/>
    <tripinfo id="55" depart="253.00" departLane="top1B3_0" departPos="5.10" departSpeed="0.00" departDelay="0.00" arrival="431.00" arrivalLane="B3top1_0" arrivalPos="286.40" arrivalSpeed="12.73" duration="178.00" routeLength="1748.75" waitingTime="9.00" waitingCount="4" stopTime="0.00" timeLoss="38.49" rerouteNo="0" devices="tripinfo_55" vType="DEFAULT_VEHTYPE" speedFactor="0.92" vaporized=""/>
    <tripinfo id="72" depart="352.00" departLane="left2A2_0" departPos="5.10" departSpeed="0.00" departDelay="0.00" arrival="434.00" arrivalLane="A1left1_0" arrivalPos="286.40" arrivalSpeed="12.47" duration="82.00" routeLength="858.56" waitingTime="2.00" waitingCount="2" stopTime="0.00" timeLoss="18.06" rerouteNo="0" devices="tripinfo_72" vType="DEFAULT_VEHTYPE" speedFactor="0.98" vaporized=""/>
    <tripinfo id="48" depart="214.00" departLane="left1A1_0" departPos="5.10" departSpeed="0.00" departDelay="0.00" arrival="438.00" arrivalLane="D0bottom3_0" arrivalPos="286.40" arrivalSpeed="14.20" duration="224.00" routeLength="1780.11" waitingTime="66.00" waitingCount="3" stopTime="0.00" timeLoss="103.26" rerouteNo="0" devices="tripinfo_48" vType="DEFAULT_VEHTYPE" speedFactor="1.07" vaporized=""/>
    <tripinfo id="81" depart="389.00" departLane="left0A0_0" departPos="5.10" departSpeed="0.00" departDelay="0.00" arrival="440.00" arrivalLane="A0bottom0_0" arrivalPos="286.40" arrivalSpeed="14.96" duration="51.00" routeLength="576.73" waitingTime="1.00" waitingCount="1" stopTime="0.00" timeLoss="12.68" rerouteNo="0" devices="tripinfo_81" vType="DEFAULT_VEHTYPE" speedFactor="1.12" vaporized=""/>
    <tripinfo id="61" depart="294.00" departLane="top3D3_0" departPos="5.10" departSpeed="0.00" departDelay="0.00" arrival="441.00" arrivalLane="D0bottom3_0" arrivalPos="286.40" arrivalSpeed="13.84" duration="147.00" routeLength="1495.58" waitingTime="23.00" waitingCount="1" stopTime="0.00" timeLoss="40.17" rerouteNo="0" devices="tripinfo_61" vType="DEFAULT_VEHTYPE" speedFactor="1.02" vaporized=""/>
    <tripinfo id="65" depart="314.00" departLane="bottom2C0_0" departPos="5.10" departSpeed="0.00" departDelay="0.00" arrival="446.00" arrivalLane="D2right2_0" arrivalPos="286.40" arrivalSpeed="15.06" duration="132.00" routeLength="1479.94" waitingTime="23.00" waitingCount="1" stopTime="0.00" timeLoss="38.99" rerouteNo="0" devices="tripinfo_65" vType="DEFAULT_VEHTYPE" speedFactor="1.15" vaporized=""/>
    <tripinfo id="38" depart="149.00" departLane="right0D0_0" departPos="5.10" departSpeed="0.00" departDelay="0.00" arrival="450.00" arrivalLane="A3left3_0" arrivalPos="286.40" arrivalSpeed="14.54" duration="301.00" routeLength="2382.93" waitingTime="87.00" waitingCount="6" stopTime="0.00" timeLoss="146.89" rerouteNo="0" devices="tripinfo_38" vType="DEFAULT_VEHTYPE" speedFactor="1.12" vaporized=""/>
    <tripinfo id="68" depart="337.00" departLane="bottom1B0_0" departPos="5.10" departSpeed="0.00" departDelay="0.00" arrival="450.00" arrivalLane="D0bottom3_0" arrivalPos="286.40" arrivalSpeed="11.61" duration="113.00" routeLength="1161.43" waitingTime="1.00" waitingCount="1" stopTime="0.00" timeLoss="17.62" rerouteNo="0" devices="tripinfo_68" vType="DEFAULT_VEHTYPE" speedFactor="0.89" vaporized=""/>
    <tripinfo id="79" depart="377.00" departLane="bottom3D0_0" departPos="5.10" departSpeed="0.00" departDelay="0.00" arrival="464.00" arrivalLane="D1right1_0" arrivalPos="286.40" arrivalSpeed="14.73" duration="87.00" routeLength="876.90" waitingTime="13.00" waitingCount="2" stopTime="0.00" timeLoss="29.87" rerouteNo="0" devices="tripinfo_79" vType="DEFAULT_VEHTYPE" speedFactor="1.12" vaporized=""/>
    <tripinfo id="28" depart="122.00" departLane="top0A3_0" departPos="5.10" departSpeed="0.00" departDelay="0.00" arrival="468.00" arrivalLane="D1right1_0" arrivalPos="286.40" arrivalSpeed="14.44" duration="346.00" routeLength="2095.69" waitingTime="158.00" waitingCount="5" stopTime="0.00" timeLoss="203.07" rerouteNo="0" devices="tripinfo_28" vType="DEFAULT_VEHTYPE" speedFactor="1.06" vaporized=""/>
    <tripinfo id="58" depart="279.00" departLane="top3D3_0" departPos="5.10" departSpeed="0.00" departDelay="0.00" arrival="469.00" arrivalLane="D3top3_0" arrivalPos="286.40" arrivalSpeed="13.84" duration="190.00" routeLength="1748.75" waitingTime="39.00" waitingCount="3" stopTime="0.00" timeLoss="66.34" rerouteNo="0" devices="tripinfo_58" vType="DEFAULT_VEHTYPE" speedFactor="1.04" vaporized=""/>
    <tripinfo id="32" depart="135.00" departLane="right2D2_0" departPos="5.10" departSpeed="0.00" departDelay="0.00" arrival="479.00" arrivalLane="A0bottom0_0" arrivalPos="286.40" arrivalSpeed="13.81" duration="344.00" routeLength="2095.69" waitingTime="153.00" waitingCount="5" stopTime="0.00" timeLoss="196.09" rerouteNo="0" devices="tripinfo_32" vType="DEFAULT_VEHTYPE" speedFactor="1.03" vaporized=""/>
    <tripinfo id="86" depart="427.00" departLane="left0A0_0" departPos="5.10" departSpeed="0.00" departDelay="0.00" arrival="482.00" arrivalLane="A0bottom0_0" arrivalPos="286.40" arrivalSpeed="15.28" duration="55.00" routeLength="576.73" waitingTime="7.00" waitingCount="1" stopTime="0.00" timeLoss="17.36" rerouteNo="0" devices="tripinfo_86" vType="DEFAULT_VEHTYPE" speedFactor="1.13" vaporized=""/>
    <tripinfo id="59" depart="279.00" departLane="right1D1_0" departPos="5.10" departSpeed="0.00" departDelay="0.00" arrival="491.00" arrivalLane="A0left0_0" arrivalPos="286.40" arrivalSpeed="13.95" duration="212.00" routeLength="1782.59" waitingTime="56.00" waitingCount="3" stopTime="0.00" timeLoss="85.07" rerouteNo="0" devices="tripinfo_59" vType="DEFAULT_VEHTYPE" speedFactor="1.02" vaporized=""/>
    <tripinfo id="89" depart="431.00" departLane="left1A1_0" departPos="5.10" departSpeed="0.00" departDelay="0.00" arrival="494.00" arrivalLane="A0bottom0_0" arrivalPos="286.40" arrivalSpeed="15.35" duration="63.00" routeLength="879.60" waitingTime="0.00" waitingCount="0" stopTime="0.00" timeLoss="7.59" rerouteNo="0" devices="tripinfo_89" vType="DEFAULT_VEHTYPE" speedFactor="1.16" vaporized=""/>
    <tripinfo id="60" depart="292.00" departLane="top1B3_0" departPos="5.10" departSpeed="0.00" departDelay="0.00" arrival="498.00" arrivalLane="A2left2_0" arrivalPos="286.40" arrivalSpeed="13.87" duration="206.00" routeLength="1179.77" waitingTime="104.00" waitingCount="3" stopTime="0.00" timeLoss="125.87" rerouteNo="0" devices="tripinfo_60" vType="DEFAULT_VEHTYPE" speedFactor="1.07" vaporized=""/>
    <tripinfo id="63" depart="310.00" departLane="left3A3_0" departPos="5.10" departSpeed="0.00" departDelay="0.00" arrival="498.00" arrivalLane="D3right3_0" arrivalPos="286.40" arrivalSpeed="13.61" duration="188.00" routeLength="1495.58" waitingTime="56.00" waitingCount="4" stopTime="0.00" timeLoss="85.54" rerouteNo="0" devices="tripinfo_63" vType="DEFAULT_VEHTYPE" speedFactor="1.06" vaporized=""/>
    <tripinfo id="37" depart="147.00" departLane="bottom0A0_0" departPos="5.10" departSpeed="0.00" departDelay="0.00" arrival="500.00" arrivalLane="D3right3_0" arrivalPos="286.40" arrivalSpeed="13.53" duration="353.00" routeLength="2380.45" waitingTime="135.00" waitingCount="5" stopTime="0.00" timeLoss="188.87" rerouteNo="0" devices="tripinfo_37" vType="DEFAULT_VEHTYPE" speedFactor="1.05" vaporized=""/>
    <tripinfo id="13" depart="40.00" departLane="bottom0A0_0" departPos="5.10" departSpeed="0.00" departDelay="0.00" arrival="521.00" arrivalLane="D2right2_0" arrivalPos="286.40" arrivalSpeed="11.78" duration="481.00" routeLength="2080.28" waitingTime="274.00" waitingCount="5" stopTime="0.00" timeLoss="316.89" rerouteNo="0" devices="tripinfo_13" vType="DEFAULT_VEHTYPE" speedFactor="0.92" vaporized=""/>
    <tripinfo id="77" depart="373.00" departLane="right0D0_0" departPos="5.10" departSpeed="0.00" departDelay="0.00" arrival="524.00" arrivalLane="D3right3_0" arrivalPos="286.40" arrivalSpeed="14.85" duration="151.00" routeLength="1461.60" waitingTime="27.00" waitingCount="3" stopTime="0.00" timeLoss="52.78" rerouteNo="0" devices="tripinfo_77" vType="DEFAULT_VEHTYPE" speedFactor="1.08" vaporized=""/>
    <tripinfo id="70" depart="342.00" departLane="bottom0A0_0" departPos="5.10" departSpeed="0.00" departDelay="0.00" arrival="528.00" arrivalLane="A3top0_1" arrivalPos="286.40" arrivalSpeed="16.23" duration="186.00" routeLength="1495.58" waitingTime="70.00" waitingCount="3" stopTime="0.00" timeLoss="96.17" rerouteNo="0" devices="tripinfo_70" vType="DEFAULT_VEHTYPE" speedFactor="1.21" vaporized=""/>
    <tripinfo id="24" depart="102.00" departLane="right0D0_0" departPos="5.10" departSpeed="0.00" departDelay="0.00" arrival="529.00" arrivalLane="A3top0_0" arrivalPos="286.40" arrivalSpeed="14.12" duration="427.00" routeLength="2380.45" waitingTime="208.00" waitingCount="7" stopTime="0.00" timeLoss="258.12" rerouteNo="0" devices="tripinfo_24" vType="DEFAULT_VEHTYPE" speedFactor="1.03" vaporized=""/>
    <tripinfo id="83" depart="396.00" departLane="left2A2_0" departPos="5.10" departSpeed="0.00" departDelay="0.00" arrival="530.00" arrivalLane="A3left3_0" arrivalPos="286.40" arrivalSpeed="13.71" duration="134.00" routeLength="894.86" waitingTime="56.00" waitingCount="1" stopTime="0.00" timeLoss="67.91" rerouteNo="0" devices="tripinfo_83" vType="DEFAULT_VEHTYPE" speedFactor="1.00" vaporized=""/>
    <tripinfo id="98" depart="474.00" departLane="right3D3_0" departPos="5.10" departSpeed="0.00" departDelay="0.00" arrival="531.00" arrivalLane="D3top3_0" arrivalPos="286.40" arrivalSpeed="12.65" duration="57.00" routeLength="576.73" waitingTime="1.00" waitingCount="1" stopTime="0.00" timeLoss="12.12" rerouteNo="0" devices="tripinfo_98" vType="DEFAULT_VEHTYPE" speedFactor="0.94" vaporized=""/>
    <tripinfo id="62" depart="303.00" departLane="left1A1_0" departPos="5.10" departSpeed="0.00" departDelay="0.00" arrival="532.00" arrivalLane="A1left1_0" arrivalPos="286.40" arrivalSpeed="14.54" duration="229.00" routeLength="1748.75" waitingTime="77.00" waitingCount="4" stopTime="0.00" timeLoss="113.93" rerouteNo="0" devices="tripinfo_62" vType="DEFAULT_VEHTYPE" speedFactor="1.12" vaporized=""/>
    <tripinfo id="71" depart="342.00" departLane="top2C3_0" departPos="5.10" departSpeed="0.00" departDelay="0.00" arrival="548.00" arrivalLane="B0bottom1_1" arrivalPos="286.40" arrivalSpeed="15.35" duration="206.00" routeLength="1782.72" waitingTime="52.00" waitingCount="4" stopTime="0.00" timeLoss="97.22" rerouteNo="0" devices="tripinfo_71" vType="DEFAULT_VEHTYPE" speedFactor="1.19" vaporized=""/>