<?xml version="1.0" encoding="UTF-8"?>

<!-- generated on 12/21/21 13:52:45 by Eclipse SUMO sumo Version 1.7.0
<configuration xmlns:xsi="http://www.w3.org/2001/XMLSchema-instance" xsi:noNamespaceSchemaLocation="http://sumo.dlr.de/xsd/sumoConfiguration.xsd">

    <input>
        <net-file value="C:\Users\longs\Desktop\RESCO-main\environments\grid4x4\grid4x4.net.xml"/>
        <route-files value="C:\Users\longs\Desktop\RESCO-main\environments\grid4x4\grid4x4_7.rou.xml"/>
    </input>

    <output>
        <tripinfo-output value="C:\Users\longs\Desktop\RESCO-main\logs\IDQN-tr1-grid4x4-0-drqlong-delaydiff_pressure0\tripinfo_7.xml"/>
        <tripinfo-output.write-unfinished value="true"/>
    </output>

    <processing>
        <time-to-teleport value="-1"/>
    </processing>

    <report>
        <no-warnings value="true"/>
        <no-step-log value="true"/>
    </report>

    <traci_server>
        <remote-port value="61783"/>
    </traci_server>

    <random_number>
        <random value="true"/>
    </random_number>

</configuration>
-->

<tripinfos xmlns:xsi="http://www.w3.org/2001/XMLSchema-instance" xsi:noNamespaceSchemaLocation="http://sumo.dlr.de/xsd/tripinfo_file.xsd">
    <tripinfo id="0" depart="0.00" departLane="left0A0_0" departPos="5.10" departSpeed="0.00" departDelay="0.00" arrival="98.00" arrivalLane="B0bottom1_0" arrivalPos="286.40" arrivalSpeed="12.91" duration="98.00" routeLength="876.90" waitingTime="16.00" waitingCount="2" stopTime="0.00" timeLoss="32.45" rerouteNo="0" devices="tripinfo_0" vType="DEFAULT_VEHTYPE" speedFactor="0.98" vaporized=""/>
    <tripinfo id="2" depart="12.00" departLane="right1D1_0" departPos="5.10" departSpeed="0.00" departDelay="0.00" arrival="118.00" arrivalLane="D0right0_0" arrivalPos="286.40" arrivalSpeed="14.26" duration="106.00" routeLength="894.86" waitingTime="28.00" waitingCount="2" stopTime="0.00" timeLoss="44.50" rerouteNo="0" devices="tripinfo_2" vType="DEFAULT_VEHTYPE" speedFactor="1.08" vaporized=""/>
    <tripinfo id="12" depart="63.00" departLane="top1B3_0" departPos="5.10" departSpeed="0.00" departDelay="2.00" arrival="141.00" arrivalLane="A3top0_0" arrivalPos="286.40" arrivalSpeed="12.86" duration="78.00" routeLength="858.56" waitingTime="1.00" waitingCount="1" stopTime="0.00" timeLoss="13.10" rerouteNo="0" devices="tripinfo_12" vType="DEFAULT_VEHTYPE" speedFactor="0.97" vaporized=""/>
    <tripinfo id="13" depart="64.00" departLane="right2D2_0" departPos="5.10" departSpeed="0.00" departDelay="0.00" arrival="156.00" arrivalLane="D3right3_0" arrivalPos="286.40" arrivalSpeed="11.50" duration="92.00" routeLength="858.56" waitingTime="2.00" waitingCount="2" stopTime="0.00" timeLoss="18.43" rerouteNo="0" devices="tripinfo_13" vType="DEFAULT_VEHTYPE" speedFactor="0.85" vaporized=""/>
    <tripinfo id="10" depart="42.00" departLane="left3A3_0" departPos="5.10" departSpeed="0.00" departDelay="0.00" arrival="164.00" arrivalLane="A1left1_0" arrivalPos="286.40" arrivalSpeed="14.32" duration="122.00" routeLength="1161.43" waitingTime="20.00" waitingCount="3" stopTime="0.00" timeLoss="43.39" rerouteNo="0" devices="tripinfo_10" vType="DEFAULT_VEHTYPE" speedFactor="1.08" vaporized=""/>
    <tripinfo id="7" depart="32.00" departLane="bottom2C0_0" departPos="5.10" departSpeed="0.00" departDelay="0.00" arrival="166.00" arrivalLane="A0bottom0_0" arrivalPos="286.40" arrivalSpeed="16.79" duration="134.00" routeLength="1197.66" waitingTime="37.00" waitingCount="3" stopTime="0.00" timeLoss="62.95" rerouteNo="0" devices="tripinfo_7" vType="DEFAULT_VEHTYPE" speedFactor="1.24" vaporized=""/>
    <tripinfo id="5" depart="20.00" departLane="top1B3_0" departPos="5.10" departSpeed="0.00" departDelay="0.00" arrival="187.00" arrivalLane="C3top2_0" arrivalPos="286.40" arrivalSpeed="11.70" duration="167.00" routeLength="894.86" waitingTime="84.00" waitingCount="1" stopTime="0.00" timeLoss="95.58" rerouteNo="0" devices="tripinfo_5" vType="DEFAULT_VEHTYPE" speedFactor="0.93" vaporized=""/>
    <tripinfo id="8" depart="33.00" departLane="top1B3_0" departPos="5.10" departSpeed="0.00" departDelay="0.00" arrival="188.00" arrivalLane="A2left2_0" arrivalPos="286.40" arrivalSpeed="13.04" duration="155.00" routeLength="1179.77" waitingTime="51.00" waitingCount="2" stopTime="0.00" timeLoss="70.23" rerouteNo="0" devices="tripinfo_8" vType="DEFAULT_VEHTYPE" speedFactor="1.02" vaporized=""/>
    <tripinfo id="17" depart="78.00" departLane="left2A2_0" departPos="5.10" departSpeed="0.00" departDelay="0.00" arrival="189.00" arrivalLane="A3left3_0" arrivalPos="286.40" arrivalSpeed="13.29" duration="111.00" routeLength="894.86" waitingTime="29.00" waitingCount="2" stopTime="0.00" timeLoss="46.70" rerouteNo="0" devices="tripinfo_17" vType="DEFAULT_VEHTYPE" speedFactor="1.03" vaporized=""/>
    <tripinfo id="16" depart="75.00" departLane="left2A2_0" departPos="5.10" departSpeed="0.00" departDelay="0.00" arrival="198.00" arrivalLane="D2right2_0" arrivalPos="286.40" arrivalSpeed="14.59" duration="123.00" routeLength="1495.58" waitingTime="4.00" waitingCount="2" stopTime="0.00" timeLoss="24.40" rerouteNo="0" devices="tripinfo_16" vType="DEFAULT_VEHTYPE" speedFactor="1.10" vaporized=""/>
    <tripinfo id="15" depart="72.00" departLane="bottom3D0_0" departPos="5.10" departSpeed="0.00" departDelay="0.00" arrival="217.00" arrivalLane="D1right1_0" arrivalPos="286.40" arrivalSpeed="12.57" duration="145.00" routeLength="876.90" waitingTime="64.00" waitingCount="2" stopTime="0.00" timeLoss="80.01" rerouteNo="0" devices="tripinfo_15" vType="DEFAULT_VEHTYPE" speedFactor="0.98" vaporized=""/>
    <tripinfo id="23" depart="136.00" departLane="right2D2_0" departPos="5.10" departSpeed="0.00" departDelay="0.00" arrival="218.00" arrivalLane="D3right3_0" arrivalPos="286.40" arrivalSpeed="13.18" duration="82.00" routeLength="858.56" waitingTime="2.00" waitingCount="2" stopTime="0.00" timeLoss="16.95" rerouteNo="0" devices="tripinfo_23" vType="DEFAULT_VEHTYPE" speedFactor="0.97" vaporized=""/>
    <tripinfo id="6" depart="30.00" departLane="left1A1_0" departPos="5.10" departSpeed="0.00" departDelay="0.00" arrival="230.00" arrivalLane="C0bottom2_0" arrivalPos="286.40" arrivalSpeed="12.48" duration="200.00" routeLength="1479.94" waitingTime="66.00" waitingCount="3" stopTime="0.00" timeLoss="89.94" rerouteNo="0" devices="tripinfo_6" vType="DEFAULT_VEHTYPE" speedFactor="0.98" vaporized=""/>
    <tripinfo id="9" depart="34.00" departLane="right1D1_0" departPos="5.10" departSpeed="0.00" departDelay="0.00" arrival="231.00" arrivalLane="D1right1_0" arrivalPos="286.40" arrivalSpeed="12.73" duration="197.00" routeLength="1748.75" waitingTime="41.00" waitingCount="3" stopTime="0.00" timeLoss="68.31" rerouteNo="0" devices="tripinfo_9" vType="DEFAULT_VEHTYPE" speedFactor="1.00" vaporized=""/>
    <tripinfo id="18" depart="95.00" departLane="top2C3_0" departPos="5.10" departSpeed="0.00" departDelay="0.00" arrival="238.00" arrivalLane="D2right2_0" arrivalPos="286.40" arrivalSpeed="14.28" duration="143.00" routeLength="1195.18" waitingTime="42.00" waitingCount="2" stopTime="0.00" timeLoss="59.41" rerouteNo="0" devices="tripinfo_18" vType="DEFAULT_VEHTYPE" speedFactor="1.04" vaporized=""/>
    <tripinfo id="25" depart="146.00" departLane="right1D1_0" departPos="5.10" departSpeed="0.00" departDelay="0.00" arrival="238.00" arrivalLane="D0right0_0" arrivalPos="286.40" arrivalSpeed="11.85" duration="92.00" routeLength="894.86" waitingTime="7.00" waitingCount="1" stopTime="0.00" timeLoss="19.40" rerouteNo="0" devices="tripinfo_25" vType="DEFAULT_VEHTYPE" speedFactor="0.91" vaporized=""/>
    <tripinfo id="26" depart="157.00" departLane="left0A0_0" departPos="5.10" departSpeed="0.00" departDelay="0.00" arrival="238.00" arrivalLane="B0bottom1_0" arrivalPos="286.40" arrivalSpeed="12.40" duration="81.00" routeLength="876.90" waitingTime="1.00" waitingCount="1" stopTime="0.00" timeLoss="13.05" rerouteNo="0" devices="tripinfo_26" vType="DEFAULT_VEHTYPE" speedFactor="0.94" vaporized=""/>
    <tripinfo id="31" depart="167.00" departLane="bottom0A0_0" departPos="5.10" departSpeed="0.00" departDelay="0.00" arrival="244.00" arrivalLane="B0bottom1_0" arrivalPos="286.40" arrivalSpeed="15.16" duration="77.00" routeLength="858.56" waitingTime="2.00" waitingCount="2" stopTime="0.00" timeLoss="20.80" rerouteNo="0" devices="tripinfo_31" vType="DEFAULT_VEHTYPE" speedFactor="1.13" vaporized=""/>
    <tripinfo id="28" depart="158.00" departLane="bottom2C0_0" departPos="5.10" departSpeed="0.00" departDelay="0.00" arrival="246.00" arrivalLane="D0bottom3_0" arrivalPos="286.40" arrivalSpeed="11.66" duration="88.00" routeLength="858.56" waitingTime="2.00" waitingCount="2" stopTime="0.00" timeLoss="18.42" rerouteNo="0" devices="tripinfo_28" vType="DEFAULT_VEHTYPE" speedFactor="0.91" vaporized=""/>
    <tripinfo id="1" depart="4.00" departLane="bottom1B0_0" departPos="5.10" departSpeed="0.00" departDelay="0.00" arrival="267.00" arrivalLane="A2left2_0" arrivalPos="286.40" arrivalSpeed="15.74" duration="263.00" routeLength="1495.35" waitingTime="147.00" waitingCount="2" stopTime="0.00" timeLoss="167.25" rerouteNo="0" devices="tripinfo_1" vType="DEFAULT_VEHTYPE" speedFactor="1.14" vaporized=""/>
    <tripinfo id="3" depart="15.00" departLane="bottom0A0_0" departPos="5.10" departSpeed="0.00" departDelay="0.00" arrival="268.00" arrivalLane="D3right3_0" arrivalPos="286.40" arrivalSpeed="14.33" duration="253.00" routeLength="2380.45" waitingTime="50.00" waitingCount="6" stopTime="0.00" timeLoss="96.52" rerouteNo="0" devices="tripinfo_3" vType="DEFAULT_VEHTYPE" speedFactor="1.11" vaporized=""/>
    <tripinfo id="19" depart="97.00" departLane="top0A3_0" departPos="5.10" departSpeed="0.00" departDelay="0.00" arrival="269.00" arrivalLane="A0bottom0_0" arrivalPos="286.40" arrivalSpeed="13.84" duration="172.00" routeLength="1495.58" waitingTime="40.00" waitingCount="3" stopTime="0.00" timeLoss="64.65" rerouteNo="0" devices="tripinfo_19" vType="DEFAULT_VEHTYPE" speedFactor="1.01" vaporized=""/>
    <tripinfo id="4" depart="17.00" departLane="right0D0_0" departPos="5.10" departSpeed="0.00" departDelay="0.00" arrival="282.00" arrivalLane="D3top3_0" arrivalPos="286.40" arrivalSpeed="11.52" duration="265.00" routeLength="1479.94" waitingTime="112.00" waitingCount="3" stopTime="0.00" timeLoss="138.20" rerouteNo="0" devices="tripinfo_4" vType="DEFAULT_VEHTYPE" speedFactor="0.85" vaporized=""/>
    <tripinfo id="14" depart="67.00" departLane="top0A3_0" departPos="5.10" departSpeed="0.00" departDelay="0.00" arrival="299.00" arrivalLane="D1right1_0" arrivalPos="286.40" arrivalSpeed="12.78" duration="232.00" routeLength="2095.69" waitingTime="49.00" waitingCount="3" stopTime="0.00" timeLoss="78.06" rerouteNo="0" devices="tripinfo_14" vType="DEFAULT_VEHTYPE" speedFactor="0.98" vaporized=""/>
    <tripinfo id="35" depart="182.00" departLane="right2D2_0" departPos="5.10" departSpeed="0.00" departDelay="0.00" arrival="299.00" arrivalLane="D0right0_0" arrivalPos="286.40" arrivalSpeed="13.31" duration="117.00" routeLength="1197.66" waitingTime="13.00" waitingCount="1" stopTime="0.00" timeLoss="30.20" rerouteNo="0" devices="tripinfo_35" vType="DEFAULT_VEHTYPE" speedFactor="1.01" vaporized=""/>
    <tripinfo id="27" depart="157.00" departLane="left2A2_0" departPos="5.10" departSpeed="0.00" departDelay="0.00" arrival="311.00" arrivalLane="C3top2_0" arrivalPos="286.40" arrivalSpeed="13.35" duration="154.00" routeLength="1495.35" waitingTime="25.00" waitingCount="2" stopTime="0.00" timeLoss="46.10" rerouteNo="0" devices="tripinfo_27" vType="DEFAULT_VEHTYPE" speedFactor="1.00" vaporized=""/>
    <tripinfo id="47" depart="214.00" departLane="top3D3_0" departPos="5.10" departSpeed="0.00" departDelay="0.00" arrival="316.00" arrivalLane="D3right3_0" arrivalPos="286.40" arrivalSpeed="15.46" duration="102.00" routeLength="597.55" waitingTime="54.00" waitingCount="1" stopTime="0.00" timeLoss="65.36" rerouteNo="0" devices="tripinfo_47" vType="DEFAULT_VEHTYPE" speedFactor="1.20" vaporized=""/>
    <tripinfo id="57" depart="255.00" departLane="left3A3_0" departPos="5.10" departSpeed="0.00" departDelay="0.00" arrival="318.00" arrivalLane="A3top0_0" arrivalPos="286.40" arrivalSpeed="14.78" duration="63.00" routeLength="597.55" waitingTime="12.00" waitingCount="1" stopTime="0.00" timeLoss="22.71" rerouteNo="0" devices="tripinfo_57" vType="DEFAULT_VEHTYPE" speedFactor="1.10" vaporized=""/>
    <tripinfo id="40" depart="191.00" departLane="bottom2C0_0" departPos="5.10" departSpeed="0.00" departDelay="0.00" arrival="319.00" arrivalLane="A0left0_1" arrivalPos="286.40" arrivalSpeed="14.52" duration="128.00" routeLength="1195.18" waitingTime="21.00" waitingCount="2" stopTime="0.00" timeLoss="49.50" rerouteNo="0" devices="tripinfo_40" vType="DEFAULT_VEHTYPE" speedFactor="1.11" vaporized=""/>
    <tripinfo id="21" depart="121.00" departLane="bottom3D0_0" departPos="5.10" departSpeed="0.00" departDelay="0.00" arrival="320.00" arrivalLane="A0left0_0" arrivalPos="286.40" arrivalSpeed="12.05" duration="199.00" routeLength="1495.35" waitingTime="60.00" waitingCount="3" stopTime="0.00" timeLoss="83.97" rerouteNo="0" devices="tripinfo_21" vType="DEFAULT_VEHTYPE" speedFactor="0.94" vaporized=""/>
    <tripinfo id="20" depart="114.00" departLane="right1D1_0" departPos="5.10" departSpeed="0.00" departDelay="0.00" arrival="345.00" arrivalLane="A1left1_0" arrivalPos="286.40" arrivalSpeed="10.22" duration="231.00" routeLength="1495.58" waitingTime="76.00" waitingCount="2" stopTime="0.00" timeLoss="95.33" rerouteNo="0" devices="tripinfo_20" vType="DEFAULT_VEHTYPE" speedFactor="0.80" vaporized=""/>
    <tripinfo id="33" depart="171.00" departLane="top1B3_0" departPos="5.10" departSpeed="0.00" departDelay="0.00" arrival="347.00" arrivalLane="A0left0_0" arrivalPos="286.40" arrivalSpeed="14.17" duration="176.00" routeLength="1780.11" waitingTime="19.00" waitingCount="5" stopTime="0.00" timeLoss="55.25" rerouteNo="0" devices="tripinfo_33" vType="DEFAULT_VEHTYPE" speedFactor="1.07" vaporized=""/>
    <tripinfo id="62" depart="269.00" departLane="left2A2_0" departPos="5.10" departSpeed="0.00" departDelay="0.00" arrival="354.00" arrivalLane="A3top0_0" arrivalPos="286.40" arrivalSpeed="12.87" duration="85.00" routeLength="895.01" waitingTime="6.00" waitingCount="1" stopTime="0.00" timeLoss="16.65" rerouteNo="0" devices="tripinfo_62" vType="DEFAULT_VEHTYPE" speedFactor="0.95" vaporized=""/>
    <tripinfo id="46" depart="208.00" departLane="right1D1_0" departPos="5.10" departSpeed="0.00" departDelay="0.00" arrival="379.00" arrivalLane="A0left0_0" arrivalPos="286.40" arrivalSpeed="11.84" duration="171.00" routeLength="1782.59" waitingTime="7.00" waitingCount="2" stopTime="0.00" timeLoss="28.43" rerouteNo="0" devices="tripinfo_46" vType="DEFAULT_VEHTYPE" speedFactor="0.91" vaporized=""/>
    <tripinfo id="11" depart="60.00" departLane="top1B3_0" departPos="5.10" departSpeed="0.00" departDelay="0.00" arrival="386.00" arrivalLane="D1right1_0" arrivalPos="286.40" arrivalSpeed="15.36" duration="326.00" routeLength="1795.52" waitingTime="186.00" waitingCount="3" stopTime="0.00" timeLoss="214.56" rerouteNo="0" devices="tripinfo_11" vType="DEFAULT_VEHTYPE" speedFactor="1.17" vaporized=""/>
    <tripinfo id="43" depart="195.00" departLane="bottom1B0_0" departPos="5.10" departSpeed="0.00" departDelay="0.00" arrival="390.00" arrivalLane="D1right1_0" arrivalPos="286.40" arrivalSpeed="13.22" duration="195.00" routeLength="1479.94" waitingTime="65.00" waitingCount="3" stopTime="0.00" timeLoss="89.59" rerouteNo="0" devices="tripinfo_43" vType="DEFAULT_VEHTYPE" speedFactor="1.02" vaporized=""/>
    <tripinfo id="34" depart="174.00" departLane="top1B3_0" departPos="5.10" departSpeed="0.00" departDelay="2.00" arrival="391.00" arrivalLane="D1right1_1" arrivalPos="286.40" arrivalSpeed="14.57" duration="217.00" routeLength="1795.52" waitingTime="54.00" waitingCount="5" stopTime="0.00" timeLoss="94.75" rerouteNo="0" devices="tripinfo_34" vType="DEFAULT_VEHTYPE" speedFactor="1.06" vaporized=""/>
    <tripinfo id="38" depart="185.00" departLane="left2A2_0" departPos="5.10" departSpeed="0.00" departDelay="0.00" arrival="398.00" arrivalLane="D2right2_0" arrivalPos="286.40" arrivalSpeed="14.15" duration="213.00" routeLength="1495.58" waitingTime="88.00" waitingCount="3" stopTime="0.00" timeLoss="111.81" rerouteNo="0" devices="tripinfo_38" vType="DEFAULT_VEHTYPE" speedFactor="1.07" vaporized=""/>
    <tripinfo id="49" depart="219.00" departLane="right3D3_0" departPos="5.10" departSpeed="0.00" departDelay="0.00" arrival="410.00" arrivalLane="D3right3_0" arrivalPos="286.40" arrivalSpeed="13.12" duration="191.00" routeLength="1745.91" waitingTime="27.00" waitingCount="5" stopTime="0.00" timeLoss="60.03" rerouteNo="0" devices="tripinfo_49" vType="DEFAULT_VEHTYPE" speedFactor="0.98" vaporized=""/>
    <tripinfo id="68" depart="313.00" departLane="left2A2_0" departPos="5.10" departSpeed="0.00" departDelay="0.00" arrival="418.00" arrivalLane="B3top1_0" arrivalPos="286.40" arrivalSpeed="13.73" duration="105.00" routeLength="1195.18" waitingTime="8.00" waitingCount="1" stopTime="0.00" timeLoss="21.51" rerouteNo="0" devices="tripinfo_68" vType="DEFAULT_VEHTYPE" speedFactor="1.04" vaporized=""/>
    <tripinfo id="58" depart="256.00" departLane="right3D3_0" departPos="5.10" departSpeed="0.00" departDelay="0.00" arrival="420.00" arrivalLane="A3top0_0" arrivalPos="286.40" arrivalSpeed="13.04" duration="164.00" routeLength="1477.24" waitingTime="32.00" waitingCount="3" stopTime="0.00" timeLoss="55.75" rerouteNo="0" devices="tripinfo_58" vType="DEFAULT_VEHTYPE" speedFactor="0.99" vaporized=""/>
    <tripinfo id="59" depart="261.00" departLane="left3A3_0" departPos="5.10" departSpeed="0.00" departDelay="0.00" arrival="423.00" arrivalLane="A0left0_0" arrivalPos="286.40" arrivalSpeed="13.09" duration="162.00" routeLength="1461.60" waitingTime="34.00" waitingCount="2" stopTime="0.00" timeLoss="55.63" rerouteNo="0" devices="tripinfo_59" vType="DEFAULT_VEHTYPE" speedFactor="1.00" vaporized=""/>
    <tripinfo id="30" depart="164.00" departLane="bottom2C0_0" departPos="5.10" departSpeed="0.00" departDelay="0.00" arrival="427.00" arrivalLane="A3left3_0" arrivalPos="286.40" arrivalSpeed="14.85" duration="263.00" routeLength="2095.69" waitingTime="87.00" waitingCount="5" stopTime="0.00" timeLoss="126.97" rerouteNo="0" devices="tripinfo_30" vType="DEFAULT_VEHTYPE" speedFactor="1.12" vaporized=""/>
    <tripinfo id="71" depart="323.00" departLane="top1B3_0" departPos="5.10" departSpeed="0.00" departDelay="0.00" arrival="429.00" arrivalLane="A2left2_0" arrivalPos="286.40" arrivalSpeed="12.68" duration="106.00" routeLength="1179.77" waitingTime="1.00" waitingCount="1" stopTime="0.00" timeLoss="13.06" rerouteNo="0" devices="tripinfo_71" vType="DEFAULT_VEHTYPE" speedFactor="0.93" vaporized=""/>
    <tripinfo id="48" depart="217.00" departLane="top0A3_0" departPos="5.10" departSpeed="0.00" departDelay="0.00" arrival="436.00" arrivalLane="D3top3_0" arrivalPos="286.40" arrivalSpeed="15.87" duration="219.00" routeLength="1497.83" waitingTime="91.00" waitingCount="4" stopTime="0.00" timeLoss="124.46" rerouteNo="0" devices="tripinfo_48" vType="DEFAULT_VEHTYPE" speedFactor="1.15" vaporized=""/>
    <tripinfo id="50" depart="225.00" departLane="top0A3_0" departPos="5.10" departSpeed="0.00" departDelay="0.00" arrival="440.00" arrivalLane="D3top3_0" arrivalPos="286.40" arrivalSpeed="13.46" duration="215.00" routeLength="1497.83" waitingTime="78.00" waitingCount="4" stopTime="0.00" timeLoss="110.37" rerouteNo="0" devices="tripinfo_50" vType="DEFAULT_VEHTYPE" speedFactor="1.04" vaporized=""/>
    <tripinfo id="29" depart="159.00" departLane="bottom0A0_0" departPos="5.10" departSpeed="0.00" departDelay="0.00" arrival="443.00" arrivalLane="D0bottom3_0" arrivalPos="286.40" arrivalSpeed="14.05" duration="284.00" routeLength="1461.60" waitingTime="155.00" waitingCount="4" stopTime="0.00" timeLoss="185.55" rerouteNo="0" devices="tripinfo_29" vType="DEFAULT_VEHTYPE" speedFactor="1.09" vaporized=""/>
    <tripinfo id="64" depart="286.00" departLane="top1B3_0" departPos="5.10" departSpeed="0.00" departDelay="0.00" arrival="446.00" arrivalLane="A1left1_0" arrivalPos="286.40" arrivalSpeed="14.71" duration="160.00" routeLength="1479.94" waitingTime="41.00" waitingCount="3" stopTime="0.00" timeLoss="65.54" rerouteNo="0" devices="tripinfo_64" vType="DEFAULT_VEHTYPE" speedFactor="1.13" vaporized=""/>
    <tripinfo id="36" depart="183.00" departLane="bottom0A0_0" departPos="5.10" departSpeed="0.00" departDelay="0.00" arrival="449.00" arrivalLane="D0bottom3_0" arrivalPos="286.40" arrivalSpeed="13.01" duration="266.00" routeLength="1461.60" waitingTime="131.00" waitingCount="4" stopTime="0.00" timeLoss="161.50" rerouteNo="0" devices="tripinfo_36" vType="DEFAULT_VEHTYPE" speedFactor="1.02" vaporized=""/>
    <tripinfo id="66" depart="299.00" departLane="right0D0_0" departPos="5.10" departSpeed="0.00" departDelay="0.00" arrival="451.00" arrivalLane="A0bottom0_0" arrivalPos="286.40" arrivalSpeed="12.49" duration="152.00" routeLength="1498.06" waitingTime="16.00" waitingCount="2" stopTime="0.00" timeLoss="34.79" rerouteNo="0" devices="tripinfo_66" vType="DEFAULT_VEHTYPE" speedFactor="0.93" vaporized=""/>
    <tripinfo id="63" depart="273.00" departLane="bottom2C0_0" departPos="5.10" departSpeed="0.00" departDelay="0.00" arrival="452.00" arrivalLane="D1right1_0" arrivalPos="286.40" arrivalSpeed="14.63" duration="179.00" routeLength="1179.77" waitingTime="84.00" waitingCount="1" stopTime="0.00" timeLoss="97.60" rerouteNo="0" devices="tripinfo_63" vType="DEFAULT_VEHTYPE" speedFactor="1.06" vaporized=""/>
    <tripinfo id="70" depart="319.00" departLane="top0A3_0" departPos="5.10" departSpeed="0.00" departDelay="0.00" arrival="454.00" arrivalLane="A1left1_0" arrivalPos="286.40" arrivalSpeed="12.79" duration="135.00" routeLength="1177.07" waitingTime="28.00" waitingCount="2" stopTime="0.00" timeLoss="44.81" rerouteNo="0" devices="tripinfo_70" vType="DEFAULT_VEHTYPE" speedFactor="0.95" vaporized=""/>
    <tripinfo id="54" depart="241.00" departLane="right0D0_0" departPos="5.10" departSpeed="0.00" departDelay="0.00" arrival="461.00" arrivalLane="C3top2_0" arrivalPos="286.40" arrivalSpeed="12.16" duration="220.00" routeLength="1780.11" waitingTime="54.00" waitingCount="4" stopTime="0.00" timeLoss="81.90" rerouteNo="0" devices="tripinfo_54" vType="DEFAULT_VEHTYPE" speedFactor="0.94" vaporized=""/>
    <tripinfo id="65" depart="291.00" departLane="right3D3_0" departPos="5.10" departSpeed="0.00" departDelay="0.00" arrival="461.00" arrivalLane="D0right0_0" arrivalPos="286.40" arrivalSpeed="11.79" duration="170.00" routeLength="1497.83" waitingTime="25.00" waitingCount="2" stopTime="0.00" timeLoss="47.44" rerouteNo="0" devices="tripinfo_65" vType="DEFAULT_VEHTYPE" speedFactor="0.89" vaporized=""/>
    <tripinfo id="37" depart="184.00" departLane="left0A0_0" departPos="5.10" departSpeed="0.00" departDelay="0.00" arrival="477.00" arrivalLane="D0right0_0" arrivalPos="286.40" arrivalSpeed="14.93" duration="293.00" routeLength="1495.58" waitingTime="172.00" waitingCount="3" stopTime="0.00" timeLoss="199.15" rerouteNo="0" devices="tripinfo_37" vType="DEFAULT_VEHTYPE" speedFactor="1.15" vaporized=""/>
    <tripinfo id="42" depart="195.00" departLane="top0A3_0" departPos="5.10" departSpeed="0.00" departDelay="0.00" arrival="483.00" arrivalLane="D0right0_0" arrivalPos="286.40" arrivalSpeed="12.02" duration="288.00" routeLength="2395.86" waitingTime="61.00" waitingCount="5" stopTime="0.00" timeLoss="104.78" rerouteNo="0" devices="tripinfo_42" vType="DEFAULT_VEHTYPE" speedFactor="0.95" vaporized=""/>
    <tripinfo id="44" depart="201.00" departLane="right0D0_0" departPos="5.10" departSpeed="0.00" departDelay="0.00" arrival="494.00" arrivalLane="A3left3_0" arrivalPos="286.40" arrivalSpeed="11.76" duration="293.00" routeLength="2382.93" waitingTime="55.00" waitingCount="4" stopTime="0.00" timeLoss="90.20" rerouteNo="0" devices="tripinfo_44" vType="DEFAULT_VEHTYPE" speedFactor="0.85" vaporized=""/>
    <tripinfo id="56" depart="250.00" departLane="top2C3_0" departPos="5.10" departSpeed="0.00" departDelay="0.00" arrival="498.00" arrivalLane="D0bottom3_0" arrivalPos="286.40" arrivalSpeed="13.44" duration="248.00" routeLength="1782.59" waitingTime="94.00" waitingCount="4" stopTime="0.00" timeLoss="125.27" rerouteNo="0" devices="tripinfo_56" vType="DEFAULT_VEHTYPE" speedFactor="1.06" vaporized=""/>
    <tripinfo id="22" depart="130.00" departLane="right3D3_0" departPos="5.10" departSpeed="0.00" departDelay="0.00" arrival="499.00" arrivalLane="A1left1_0" arrivalPos="286.40" arrivalSpeed="14.36" duration="369.00" routeLength="2080.05" waitingTime="188.00" waitingCount="5" stopTime="0.00" timeLoss="227.48" rerouteNo="0" devices="tripinfo_22" vType="DEFAULT_VEHTYPE" speedFactor="1.07" vaporized=""/>
    <tripinfo id="73" depart="332.00" departLane="left2A2_0" departPos="5.10" departSpeed="0.00" departDelay="0.00" arrival="502.00" arrivalLane="B3top1_0" arrivalPos="286.40" arrivalSpeed="10.91" duration="170.00" routeLength="1195.18" waitingTime="49.00" waitingCount="3" stopTime="0.00" timeLoss="71.17" rerouteNo="0" devices="tripinfo_73" vType="DEFAULT_VEHTYPE" speedFactor="0.88" vaporized=""/>
    <tripinfo id="67" depart="302.00" departLane="right0D0_0" departPos="5.10" departSpeed="0.00" departDelay="2.00" arrival="510.00" arrivalLane="B0bottom1_0" arrivalPos="286.40" arrivalSpeed="13.03" duration="208.00" routeLength="1197.89" waitingTime="92.00" waitingCount="3" stopTime="0.00" timeLoss="118.99" rerouteNo="0" devices="tripinfo_67" vType="DEFAULT_VEHTYPE" speedFactor="0.98" vaporized=""/>
    <tripinfo id="77" depart="348.00" departLane="left1A1_0" departPos="5.10" departSpeed="0.00" departDelay="0.00" arrival="520.00" arrivalLane="A3left3_0" arrivalPos="286.40" arrivalSpeed="12.65" duration="172.00" routeLength="1197.66" waitingTime="60.00" waitingCount="3" stopTime="0.00" timeLoss="82.82" rerouteNo="0" devices="tripinfo_77" vType="DEFAULT_VEHTYPE" speedFactor="0.99" vaporized=""/>
    <tripinfo id="79" depart="355.00" departLane="right3D3_0" departPos="5.10" departSpeed="0.00" departDelay="0.00" arrival="521.00" arrivalLane="D1right1_0" arrivalPos="286.40" arrivalSpeed="12.33" duration="166.00" routeLength="1197.66" waitingTime="50.00" waitingCount="3" stopTime="0.00" timeLoss="72.31" rerouteNo="0" devices="tripinfo_79" vType="DEFAULT_VEHTYPE" speedFactor="0.93" vaporized=""/>
    <tripinfo id="51" depart="229.00" departLane="top3D3_0" departPos="5.10" departSpeed="0.00" departDelay="0.00" arrival="530.00" arrivalLane="B0bottom1_0" arrivalPos="286.40" arrivalSpeed="12.85" duration="301.00" routeLength="2082.76" waitingTime="105.00" waitingCount="5" stopTime="0.00" timeLoss="140.68" rerouteNo="0" devices="tripinfo_51" vType="DEFAULT_VEHTYPE" speedFactor="0.94" vaporized=""/>
    <tripinfo id="76" depart="347.00" departLane="right2D2_0" departPos="5.10" departSpeed="0.00" departDelay="0.00" arrival="531.00" arrivalLane="D0bottom3_0" arrivalPos="286.40" arrivalSpeed="10.97" duration="184.00" routeLength="1195.18" waitingTime="63.00" waitingCount="2" stopTime="0.00" timeLoss="79.62" rerouteNo="0" devices="tripinfo_76" vType="DEFAULT_VEHTYPE" speedFactor="0.83" vaporized=""/>
    <tripinfo id="78" depart="354.00" departLane="top1B3_0" departPos="5.10" departSpeed="0.00" departDelay="0.00" arrival="550.00" arrivalLane="B3top1_0" arrivalPos="286.40" arrivalSpeed="12.64" duration="196.00" routeLength="1748.75" waitingTime="29.00" waitingCount="5" stopTime="0.00" timeLoss="61.25" rerouteNo="0" devices="tripinfo_78" vType="DEFAULT_VEHTYPE" speedFactor="0.95" vaporized=""/>
    <tripinfo id="83" depart="400.00" departLane="left1A1_0" departPos="5.10" departSpeed="0.00" departDelay="0.00" arrival="558.00" arrivalLane="B0bottom1_0" arrivalPos="286.40" arrivalSpeed="14.33" duration="158.00" routeLength="1179.77" waitingTime="55.00" waitingCount="2" stopTime="0.00" timeLoss="74.95" rerouteNo="0" devices="tripinfo_83" vType="DEFAULT_VEHTYPE" speedFactor="1.04" vaporized=""/>
    <tripinfo id="88" depart="419.00" departLane="left1A1_0" departPos="5.10" departSpeed="0.00" departDelay="0.00" arrival="560.00" arrivalLane="B0bottom1_0" arrivalPos="286.40" arrivalSpeed="13.96" duration="141.00" routeLength="1179.77" waitingTime="35.00" waitingCount="3" stopTime="0.00" timeLoss="57.60" rerouteNo="0" devices="tripinfo_88" vType="DEFAULT_VEHTYPE" speedFactor="1.03" vaporized=""/>
    <tripinfo id="69" depart="316.00" departLane="top1B3_0" departPos="5.10" departSpeed="0.00" departDelay="0.00" arrival="561.00" arrivalLane="D1right1_0" arrivalPos="286.40" arrivalSpeed="12.08" duration="245.00" routeLength="1795.52" waitingTime="75.00" waitingCount="3" stopTime="0.00" timeLoss="104.60" rerouteNo="0" devices="tripinfo_69" vType="DEFAULT_VEHTYPE" speedFactor="0.93" vaporized=""/>
    <tripinfo id="39" depart="187.00" departLane="left3A3_0" departPos="5.10" departSpeed="0.00" departDelay="0.00" arrival="576.00" arrivalLane="C0bottom2_0" arrivalPos="286.40" arrivalSpeed="15.05" duration="389.00" routeLength="2080.28" waitingTime="204.00" waitingCount="6" stopTime="0.00" timeLoss="259.18" rerouteNo="0" devices="tripinfo_39" vType="DEFAULT_VEHTYPE" speedFactor="1.16" vaporized=""/>
    <tripinfo id="45" depart="204.00" departLane="bottom0A0_0" departPos="5.10" departSpeed="0.00" departDelay="0.00" arrival="582.00" arrivalLane="D2right2_0" arrivalPos="286.40" arrivalSpeed="12.28" duration="378.00" routeLength="2080.28" waitingTime="165.00" waitingCount="6" stopTime="0.00" timeLoss="207.98" rerouteNo="0" devices="tripinfo_45" vType="DEFAULT_VEHTYPE" speedFactor="0.88" vaporized=""/>