<?xml version="1.0" encoding="UTF-8"?>

<!-- generated on 12/21/21 14:06:20 by Eclipse SUMO sumo Version 1.7.0
<configuration xmlns:xsi="http://www.w3.org/2001/XMLSchema-instance" xsi:noNamespaceSchemaLocation="http://sumo.dlr.de/xsd/sumoConfiguration.xsd">

    <input>
        <net-file value="C:\Users\longs\Desktop\RESCO-main\environments\grid4x4\grid4x4.net.xml"/>
        <route-files value="C:\Users\longs\Desktop\RESCO-main\environments\grid4x4\grid4x4_21.rou.xml"/>
    </input>

    <output>
        <tripinfo-output value="C:\Users\longs\Desktop\RESCO-main\logs\IDQN-tr1-grid4x4-0-drqlong-delaydiff_pressure0\tripinfo_21.xml"/>
        <tripinfo-output.write-unfinished value="true"/>
    </output>

    <processing>
        <time-to-teleport value="-1"/>
    </processing>

    <report>
        <no-warnings value="true"/>
        <no-step-log value="true"/>
    </report>

    <traci_server>
        <remote-port value="62215"/>
    </traci_server>

    <random_number>
        <random value="true"/>
    </random_number>

</configuration>
-->

<tripinfos xmlns:xsi="http://www.w3.org/2001/XMLSchema-instance" xsi:noNamespaceSchemaLocation="http://sumo.dlr.de/xsd/tripinfo_file.xsd">
    <tripinfo id="1" depart="10.00" departLane="left3A3_0" departPos="5.10" departSpeed="0.00" departDelay="0.00" arrival="88.00" arrivalLane="A2left2_0" arrivalPos="286.40" arrivalSpeed="12.58" duration="78.00" routeLength="858.56" waitingTime="1.00" waitingCount="1" stopTime="0.00" timeLoss="14.15" rerouteNo="0" devices="tripinfo_1" vType="DEFAULT_VEHTYPE" speedFactor="0.99" vaporized=""/>
    <tripinfo id="12" depart="70.00" departLane="left2A2_0" departPos="5.10" departSpeed="0.00" departDelay="0.00" arrival="177.00" arrivalLane="A3top0_0" arrivalPos="286.40" arrivalSpeed="14.41" duration="107.00" routeLength="895.01" waitingTime="34.00" waitingCount="1" stopTime="0.00" timeLoss="46.82" rerouteNo="0" devices="tripinfo_12" vType="DEFAULT_VEHTYPE" speedFactor="1.09" vaporized=""/>
    <tripinfo id="20" depart="105.00" departLane="bottom1B0_0" departPos="5.10" departSpeed="0.00" departDelay="0.00" arrival="177.00" arrivalLane="C0bottom2_0" arrivalPos="286.40" arrivalSpeed="14.17" duration="72.00" routeLength="858.56" waitingTime="1.00" waitingCount="1" stopTime="0.00" timeLoss="14.32" rerouteNo="0" devices="tripinfo_20" vType="DEFAULT_VEHTYPE" speedFactor="1.10" vaporized=""/>
    <tripinfo id="16" depart="88.00" departLane="left1A1_0" departPos="5.10" departSpeed="0.00" departDelay="0.00" arrival="187.00" arrivalLane="B0bottom1_0" arrivalPos="286.40" arrivalSpeed="14.31" duration="99.00" routeLength="1179.77" waitingTime="1.00" waitingCount="1" stopTime="0.00" timeLoss="21.91" rerouteNo="0" devices="tripinfo_16" vType="DEFAULT_VEHTYPE" speedFactor="1.11" vaporized=""/>
    <tripinfo id="5" depart="31.00" departLane="bottom0A0_0" departPos="5.10" departSpeed="0.00" departDelay="0.00" arrival="188.00" arrivalLane="D0bottom3_0" arrivalPos="286.40" arrivalSpeed="13.29" duration="157.00" routeLength="1461.60" waitingTime="20.00" waitingCount="4" stopTime="0.00" timeLoss="50.21" rerouteNo="0" devices="tripinfo_5" vType="DEFAULT_VEHTYPE" speedFactor="1.00" vaporized=""/>
    <tripinfo id="10" depart="62.00" departLane="right0D0_0" departPos="5.10" departSpeed="0.00" departDelay="0.00" arrival="189.00" arrivalLane="C0bottom2_0" arrivalPos="286.40" arrivalSpeed="13.99" duration="127.00" routeLength="897.72" waitingTime="43.00" waitingCount="2" stopTime="0.00" timeLoss="61.92" rerouteNo="0" devices="tripinfo_10" vType="DEFAULT_VEHTYPE" speedFactor="1.01" vaporized=""/>
    <tripinfo id="4" depart="20.00" departLane="right3D3_0" departPos="5.10" departSpeed="0.00" departDelay="0.00" arrival="197.00" arrivalLane="D0bottom3_0" arrivalPos="286.40" arrivalSpeed="14.97" duration="177.00" routeLength="1495.35" waitingTime="58.00" waitingCount="2" stopTime="0.00" timeLoss="80.25" rerouteNo="0" devices="tripinfo_4" vType="DEFAULT_VEHTYPE" speedFactor="1.13" vaporized=""/>
    <tripinfo id="6" depart="34.00" departLane="bottom0A0_0" departPos="5.10" departSpeed="0.00" departDelay="0.00" arrival="199.00" arrivalLane="A2left2_0" arrivalPos="286.40" arrivalSpeed="13.22" duration="165.00" routeLength="1197.89" waitingTime="54.00" waitingCount="3" stopTime="0.00" timeLoss="78.03" rerouteNo="0" devices="tripinfo_6" vType="DEFAULT_VEHTYPE" speedFactor="1.00" vaporized=""/>
    <tripinfo id="15" depart="79.00" departLane="left1A1_0" departPos="5.10" departSpeed="0.00" departDelay="0.00" arrival="212.00" arrivalLane="C0bottom2_0" arrivalPos="286.40" arrivalSpeed="14.13" duration="133.00" routeLength="1479.94" waitingTime="8.00" waitingCount="2" stopTime="0.00" timeLoss="28.73" rerouteNo="0" devices="tripinfo_15" vType="DEFAULT_VEHTYPE" speedFactor="1.04" vaporized=""/>
    <tripinfo id="29" depart="122.00" departLane="bottom3D0_0" departPos="5.10" departSpeed="0.00" departDelay="0.00" arrival="227.00" arrivalLane="D1right1_0" arrivalPos="286.40" arrivalSpeed="14.03" duration="105.00" routeLength="876.90" waitingTime="25.00" waitingCount="2" stopTime="0.00" timeLoss="41.87" rerouteNo="0" devices="tripinfo_29" vType="DEFAULT_VEHTYPE" speedFactor="1.01" vaporized=""/>
    <tripinfo id="24" depart="112.00" departLane="bottom0A0_0" departPos="5.10" departSpeed="0.00" departDelay="0.00" arrival="235.00" arrivalLane="C0bottom2_0" arrivalPos="286.40" arrivalSpeed="14.78" duration="123.00" routeLength="1161.43" waitingTime="20.00" waitingCount="3" stopTime="0.00" timeLoss="44.75" rerouteNo="0" devices="tripinfo_24" vType="DEFAULT_VEHTYPE" speedFactor="1.09" vaporized=""/>
    <tripinfo id="11" depart="67.00" departLane="bottom0A0_0" departPos="5.10" departSpeed="0.00" departDelay="0.00" arrival="241.00" arrivalLane="A0bottom0_0" arrivalPos="286.40" arrivalSpeed="12.24" duration="174.00" routeLength="1748.75" waitingTime="9.00" waitingCount="3" stopTime="0.00" timeLoss="36.66" rerouteNo="0" devices="tripinfo_11" vType="DEFAULT_VEHTYPE" speedFactor="0.94" vaporized=""/>
    <tripinfo id="18" depart="95.00" departLane="left1A1_0" departPos="5.10" departSpeed="0.00" departDelay="0.00" arrival="253.00" arrivalLane="A2left2_0" arrivalPos="286.40" arrivalSpeed="11.38" duration="158.00" routeLength="894.86" waitingTime="64.00" waitingCount="2" stopTime="0.00" timeLoss="81.85" rerouteNo="0" devices="tripinfo_18" vType="DEFAULT_VEHTYPE" speedFactor="0.87" vaporized=""/>
    <tripinfo id="21" depart="106.00" departLane="right1D1_0" departPos="5.10" departSpeed="0.00" departDelay="0.00" arrival="256.00" arrivalLane="C0bottom2_0" arrivalPos="286.40" arrivalSpeed="12.07" duration="150.00" routeLength="1195.18" waitingTime="36.00" waitingCount="2" stopTime="0.00" timeLoss="55.92" rerouteNo="0" devices="tripinfo_21" vType="DEFAULT_VEHTYPE" speedFactor="0.93" vaporized=""/>
    <tripinfo id="8" depart="42.00" departLane="bottom2C0_0" departPos="5.10" departSpeed="0.00" departDelay="0.00" arrival="258.00" arrivalLane="A2left2_0" arrivalPos="286.40" arrivalSpeed="13.68" duration="216.00" routeLength="1795.52" waitingTime="58.00" waitingCount="4" stopTime="0.00" timeLoss="89.51" rerouteNo="0" devices="tripinfo_8" vType="DEFAULT_VEHTYPE" speedFactor="1.03" vaporized=""/>
    <tripinfo id="14" depart="77.00" departLane="left3A3_0" departPos="5.10" departSpeed="0.00" departDelay="0.00" arrival="259.00" arrivalLane="C3top2_0" arrivalPos="286.40" arrivalSpeed="13.60" duration="182.00" routeLength="1197.89" waitingTime="75.00" waitingCount="3" stopTime="0.00" timeLoss="97.01" rerouteNo="0" devices="tripinfo_14" vType="DEFAULT_VEHTYPE" speedFactor="1.02" vaporized=""/>
    <tripinfo id="26" depart="114.00" departLane="top1B3_0" departPos="5.10" departSpeed="0.00" departDelay="0.00" arrival="259.00" arrivalLane="D2right2_0" arrivalPos="286.40" arrivalSpeed="13.50" duration="145.00" routeLength="1495.35" waitingTime="4.00" waitingCount="3" stopTime="0.00" timeLoss="37.44" rerouteNo="0" devices="tripinfo_26" vType="DEFAULT_VEHTYPE" speedFactor="1.01" vaporized=""/>
    <tripinfo id="3" depart="17.00" departLane="bottom1B0_0" departPos="5.10" departSpeed="0.00" departDelay="0.00" arrival="277.00" arrivalLane="A3left3_0" arrivalPos="286.40" arrivalSpeed="14.20" duration="260.00" routeLength="1795.52" waitingTime="106.00" waitingCount="4" stopTime="0.00" timeLoss="139.61" rerouteNo="0" devices="tripinfo_3" vType="DEFAULT_VEHTYPE" speedFactor="1.08" vaporized=""/>
    <tripinfo id="17" depart="93.00" departLane="right3D3_0" departPos="5.10" departSpeed="0.00" departDelay="0.00" arrival="280.00" arrivalLane="D3right3_0" arrivalPos="286.40" arrivalSpeed="12.57" duration="187.00" routeLength="1745.91" waitingTime="19.00" waitingCount="5" stopTime="0.00" timeLoss="54.01" rerouteNo="0" devices="tripinfo_17" vType="DEFAULT_VEHTYPE" speedFactor="0.96" vaporized=""/>
    <tripinfo id="2" depart="13.00" departLane="top0A3_0" departPos="5.10" departSpeed="0.00" departDelay="0.00" arrival="281.00" arrivalLane="D1right1_0" arrivalPos="286.40" arrivalSpeed="13.06" duration="268.00" routeLength="2095.69" waitingTime="74.00" waitingCount="4" stopTime="0.00" timeLoss="109.71" rerouteNo="0" devices="tripinfo_2" vType="DEFAULT_VEHTYPE" speedFactor="0.96" vaporized=""/>
    <tripinfo id="25" depart="114.00" departLane="top2C3_0" departPos="5.10" departSpeed="0.00" departDelay="0.00" arrival="281.00" arrivalLane="C0bottom2_0" arrivalPos="286.40" arrivalSpeed="12.62" duration="167.00" routeLength="1495.58" waitingTime="19.00" waitingCount="3" stopTime="0.00" timeLoss="48.74" rerouteNo="0" devices="tripinfo_25" vType="DEFAULT_VEHTYPE" speedFactor="0.91" vaporized=""/>
    <tripinfo id="30" depart="125.00" departLane="top3D3_0" departPos="5.10" departSpeed="0.00" departDelay="0.00" arrival="281.00" arrivalLane="A3left3_0" arrivalPos="286.40" arrivalSpeed="13.00" duration="156.00" routeLength="1479.94" waitingTime="21.00" waitingCount="3" stopTime="0.00" timeLoss="49.12" rerouteNo="0" devices="tripinfo_30" vType="DEFAULT_VEHTYPE" speedFactor="1.01" vaporized=""/>
    <tripinfo id="19" depart="96.00" departLane="right2D2_0" departPos="5.10" departSpeed="0.00" departDelay="0.00" arrival="290.00" arrivalLane="A3top0_0" arrivalPos="286.40" arrivalSpeed="12.52" duration="194.00" routeLength="1780.11" waitingTime="25.00" waitingCount="4" stopTime="0.00" timeLoss="58.80" rerouteNo="0" devices="tripinfo_19" vType="DEFAULT_VEHTYPE" speedFactor="0.96" vaporized=""/>
    <tripinfo id="13" depart="76.00" departLane="bottom3D0_0" departPos="5.10" departSpeed="0.00" departDelay="0.00" arrival="292.00" arrivalLane="D3top3_0" arrivalPos="286.40" arrivalSpeed="11.59" duration="216.00" routeLength="1495.58" waitingTime="66.00" waitingCount="4" stopTime="0.00" timeLoss="97.64" rerouteNo="0" devices="tripinfo_13" vType="DEFAULT_VEHTYPE" speedFactor="0.92" vaporized=""/>
    <tripinfo id="7" depart="39.00" departLane="left1A1_0" departPos="5.10" departSpeed="0.00" departDelay="0.00" arrival="300.00" arrivalLane="C3top2_0" arrivalPos="286.40" arrivalSpeed="12.44" duration="261.00" routeLength="1795.52" waitingTime="91.00" waitingCount="3" stopTime="0.00" timeLoss="121.69" rerouteNo="0" devices="tripinfo_7" vType="DEFAULT_VEHTYPE" speedFactor="0.93" vaporized=""/>
    <tripinfo id="27" depart="115.00" departLane="top3D3_0" departPos="5.10" departSpeed="0.00" departDelay="0.00" arrival="307.00" arrivalLane="D3top3_0" arrivalPos="286.40" arrivalSpeed="14.81" duration="192.00" routeLength="1748.75" waitingTime="36.00" waitingCount="5" stopTime="0.00" timeLoss="75.03" rerouteNo="0" devices="tripinfo_27" vType="DEFAULT_VEHTYPE" speedFactor="1.10" vaporized=""/>
    <tripinfo id="49" depart="221.00" departLane="top2C3_0" departPos="5.10" departSpeed="0.00" departDelay="0.00" arrival="312.00" arrivalLane="D3right3_0" arrivalPos="286.40" arrivalSpeed="11.50" duration="91.00" routeLength="895.01" waitingTime="5.00" waitingCount="1" stopTime="0.00" timeLoss="16.79" rerouteNo="0" devices="tripinfo_49" vType="DEFAULT_VEHTYPE" speedFactor="0.88" vaporized=""/>
    <tripinfo id="22" depart="106.00" departLane="right2D2_0" departPos="5.10" departSpeed="0.00" departDelay="0.00" arrival="313.00" arrivalLane="A0left0_0" arrivalPos="286.40" arrivalSpeed="13.51" duration="207.00" routeLength="2080.05" waitingTime="29.00" waitingCount="3" stopTime="0.00" timeLoss="55.90" rerouteNo="0" devices="tripinfo_22" vType="DEFAULT_VEHTYPE" speedFactor="1.00" vaporized=""/>
    <tripinfo id="61" depart="269.00" departLane="right3D3_0" departPos="5.10" departSpeed="0.00" departDelay="0.00" arrival="313.00" arrivalLane="D3top3_0" arrivalPos="286.40" arrivalSpeed="16.75" duration="44.00" routeLength="576.73" waitingTime="0.00" waitingCount="0" stopTime="0.00" timeLoss="10.77" rerouteNo="0" devices="tripinfo_61" vType="DEFAULT_VEHTYPE" speedFactor="1.27" vaporized=""/>
    <tripinfo id="41" depart="201.00" departLane="left3A3_0" departPos="5.10" departSpeed="0.00" departDelay="0.00" arrival="315.00" arrivalLane="A1left1_0" arrivalPos="286.40" arrivalSpeed="14.27" duration="114.00" routeLength="1161.43" waitingTime="11.00" waitingCount="3" stopTime="0.00" timeLoss="35.13" rerouteNo="0" devices="tripinfo_41" vType="DEFAULT_VEHTYPE" speedFactor="1.08" vaporized=""/>
    <tripinfo id="36" depart="180.00" departLane="bottom1B0_0" departPos="5.10" departSpeed="0.00" departDelay="0.00" arrival="318.00" arrivalLane="D1right1_0" arrivalPos="286.40" arrivalSpeed="13.84" duration="138.00" routeLength="1479.94" waitingTime="11.00" waitingCount="3" stopTime="0.00" timeLoss="35.86" rerouteNo="0" devices="tripinfo_36" vType="DEFAULT_VEHTYPE" speedFactor="1.05" vaporized=""/>
    <tripinfo id="39" depart="198.00" departLane="top2C3_0" departPos="5.10" departSpeed="0.00" departDelay="0.00" arrival="325.00" arrivalLane="A2left2_0" arrivalPos="286.40" arrivalSpeed="13.01" duration="127.00" routeLength="1479.94" waitingTime="1.00" waitingCount="1" stopTime="0.00" timeLoss="12.74" rerouteNo="0" devices="tripinfo_39" vType="DEFAULT_VEHTYPE" speedFactor="0.94" vaporized=""/>
    <tripinfo id="28" depart="119.00" departLane="left0A0_0" departPos="5.10" departSpeed="0.00" departDelay="0.00" arrival="334.00" arrivalLane="A3left3_0" arrivalPos="286.40" arrivalSpeed="10.63" duration="215.00" routeLength="1497.83" waitingTime="60.00" waitingCount="3" stopTime="0.00" timeLoss="82.96" rerouteNo="0" devices="tripinfo_28" vType="DEFAULT_VEHTYPE" speedFactor="0.82" vaporized=""/>
    <tripinfo id="47" depart="214.00" departLane="right3D3_0" departPos="5.10" departSpeed="0.00" departDelay="0.00" arrival="343.00" arrivalLane="B3top1_0" arrivalPos="286.40" arrivalSpeed="11.39" duration="129.00" routeLength="1177.07" waitingTime="12.00" waitingCount="2" stopTime="0.00" timeLoss="34.56" rerouteNo="0" devices="tripinfo_47" vType="DEFAULT_VEHTYPE" speedFactor="0.90" vaporized=""/>
    <tripinfo id="0" depart="0.00" departLane="left0A0_0" departPos="5.10" departSpeed="0.00" departDelay="0.00" arrival="346.00" arrivalLane="D3top3_0" arrivalPos="286.40" arrivalSpeed="14.91" duration="346.00" routeLength="2395.86" waitingTime="147.00" waitingCount="4" stopTime="0.00" timeLoss="192.81" rerouteNo="0" devices="tripinfo_0" vType="DEFAULT_VEHTYPE" speedFactor="1.13" vaporized=""/>
    <tripinfo id="33" depart="156.00" departLane="bottom3D0_0" departPos="5.10" departSpeed="0.00" departDelay="0.00" arrival="351.00" arrivalLane="C3top2_0" arrivalPos="286.40" arrivalSpeed="11.83" duration="195.00" routeLength="1782.59" waitingTime="28.00" waitingCount="4" stopTime="0.00" timeLoss="53.35" rerouteNo="0" devices="tripinfo_33" vType="DEFAULT_VEHTYPE" speedFactor="0.92" vaporized=""/>
    <tripinfo id="52" depart="229.00" departLane="right2D2_0" departPos="5.10" departSpeed="0.00" departDelay="0.00" arrival="353.00" arrivalLane="C3top2_0" arrivalPos="286.40" arrivalSpeed="11.08" duration="124.00" routeLength="1179.77" waitingTime="7.00" waitingCount="2" stopTime="0.00" timeLoss="26.31" rerouteNo="0" devices="tripinfo_52" vType="DEFAULT_VEHTYPE" speedFactor="0.88" vaporized=""/>
    <tripinfo id="34" depart="161.00" departLane="left0A0_0" departPos="5.10" departSpeed="0.00" departDelay="0.00" arrival="362.00" arrivalLane="A0left0_0" arrivalPos="286.40" arrivalSpeed="12.34" duration="201.00" routeLength="1745.91" waitingTime="28.00" waitingCount="2" stopTime="0.00" timeLoss="57.86" rerouteNo="0" devices="tripinfo_34" vType="DEFAULT_VEHTYPE" speedFactor="0.90" vaporized=""/>
    <tripinfo id="59" depart="259.00" departLane="top2C3_0" departPos="5.10" departSpeed="0.00" departDelay="0.00" arrival="366.00" arrivalLane="D3top3_0" arrivalPos="286.40" arrivalSpeed="15.18" duration="107.00" routeLength="894.86" waitingTime="35.00" waitingCount="2" stopTime="0.00" timeLoss="50.63" rerouteNo="0" devices="tripinfo_59" vType="DEFAULT_VEHTYPE" speedFactor="1.17" vaporized=""/>
    <tripinfo id="38" depart="197.00" departLane="right2D2_0" departPos="5.10" departSpeed="0.00" departDelay="0.00" arrival="371.00" arrivalLane="A3top0_0" arrivalPos="286.40" arrivalSpeed="13.97" duration="174.00" routeLength="1780.11" waitingTime="29.00" waitingCount="3" stopTime="0.00" timeLoss="52.02" rerouteNo="0" devices="tripinfo_38" vType="DEFAULT_VEHTYPE" speedFactor="1.06" vaporized=""/>
    <tripinfo id="23" depart="109.00" departLane="bottom2C0_0" departPos="5.10" departSpeed="0.00" departDelay="0.00" arrival="382.00" arrivalLane="D3top3_0" arrivalPos="286.40" arrivalSpeed="11.45" duration="273.00" routeLength="1782.72" waitingTime="89.00" waitingCount="4" stopTime="0.00" timeLoss="123.99" rerouteNo="0" devices="tripinfo_23" vType="DEFAULT_VEHTYPE" speedFactor="0.87" vaporized=""/>
    <tripinfo id="32" depart="153.00" departLane="right0D0_0" departPos="5.10" departSpeed="0.00" departDelay="0.00" arrival="388.00" arrivalLane="A3left3_0" arrivalPos="286.40" arrivalSpeed="15.89" duration="235.00" routeLength="2382.93" waitingTime="48.00" waitingCount="4" stopTime="0.00" timeLoss="87.54" rerouteNo="0" devices="tripinfo_32" vType="DEFAULT_VEHTYPE" speedFactor="1.18" vaporized=""/>
    <tripinfo id="46" depart="209.00" departLane="top1B3_0" departPos="5.10" departSpeed="0.00" departDelay="0.00" arrival="389.00" arrivalLane="A0left0_0" arrivalPos="286.40" arrivalSpeed="13.55" duration="180.00" routeLength="1780.11" waitingTime="22.00" waitingCount="3" stopTime="0.00" timeLoss="49.12" rerouteNo="0" devices="tripinfo_46" vType="DEFAULT_VEHTYPE" speedFactor="0.99" vaporized=""/>
    <tripinfo id="45" depart="206.00" departLane="top3D3_0" departPos="5.10" departSpeed="0.00" departDelay="0.00" arrival="390.00" arrivalLane="D3top3_0" arrivalPos="286.40" arrivalSpeed="13.10" duration="184.00" routeLength="1748.75" waitingTime="21.00" waitingCount="4" stopTime="0.00" timeLoss="52.15" rerouteNo="0" devices="tripinfo_45" vType="DEFAULT_VEHTYPE" speedFactor="0.98" vaporized=""/>
    <tripinfo id="37" depart="196.00" departLane="right3D3_0" departPos="5.10" departSpeed="0.00" departDelay="0.00" arrival="399.00" arrivalLane="C0bottom2_0" arrivalPos="286.40" arrivalSpeed="13.44" duration="203.00" routeLength="1795.52" waitingTime="42.00" waitingCount="3" stopTime="0.00" timeLoss="71.18" rerouteNo="0" devices="tripinfo_37" vType="DEFAULT_VEHTYPE" speedFactor="0.99" vaporized=""/>
    <tripinfo id="31" depart="136.00" departLane="top2C3_0" departPos="5.10" departSpeed="0.00" departDelay="0.00" arrival="400.00" arrivalLane="D0right0_0" arrivalPos="286.40" arrivalSpeed="13.72" duration="264.00" routeLength="1795.52" waitingTime="101.00" waitingCount="4" stopTime="0.00" timeLoss="132.16" rerouteNo="0" devices="tripinfo_31" vType="DEFAULT_VEHTYPE" speedFactor="0.99" vaporized=""/>
    <tripinfo id="44" depart="206.00" departLane="right3D3_0" departPos="5.10" departSpeed="0.00" departDelay="0.00" arrival="411.00" arrivalLane="A3top0_0" arrivalPos="286.40" arrivalSpeed="12.41" duration="205.00" routeLength="1477.24" waitingTime="58.00" waitingCount="4" stopTime="0.00" timeLoss="86.43" rerouteNo="0" devices="tripinfo_44" vType="DEFAULT_VEHTYPE" speedFactor="0.91" vaporized=""/>
    <tripinfo id="64" depart="289.00" departLane="top2C3_0" departPos="5.10" departSpeed="0.00" departDelay="0.00" arrival="413.00" arrivalLane="A3top0_0" arrivalPos="286.40" arrivalSpeed="12.95" duration="124.00" routeLength="1161.43" waitingTime="17.00" waitingCount="2" stopTime="0.00" timeLoss="41.39" rerouteNo="0" devices="tripinfo_64" vType="DEFAULT_VEHTYPE" speedFactor="1.03" vaporized=""/>
    <tripinfo id="54" depart="237.00" departLane="top1B3_0" departPos="5.10" departSpeed="0.00" departDelay="0.00" arrival="417.00" arrivalLane="B3top1_0" arrivalPos="286.40" arrivalSpeed="13.93" duration="180.00" routeLength="1748.75" waitingTime="22.00" waitingCount="4" stopTime="0.00" timeLoss="54.06" rerouteNo="0" devices="tripinfo_54" vType="DEFAULT_VEHTYPE" speedFactor="1.02" vaporized=""/>
    <tripinfo id="53" depart="236.00" departLane="left0A0_0" departPos="5.10" departSpeed="0.00" departDelay="0.00" arrival="418.00" arrivalLane="A3top0_0" arrivalPos="286.40" arrivalSpeed="13.12" duration="182.00" routeLength="1495.35" waitingTime="51.00" waitingCount="3" stopTime="0.00" timeLoss="75.85" rerouteNo="0" devices="tripinfo_53" vType="DEFAULT_VEHTYPE" speedFactor="1.02" vaporized=""/>
    <tripinfo id="43" depart="205.00" departLane="top0A3_0" departPos="5.10" departSpeed="0.00" departDelay="0.00" arrival="419.00" arrivalLane="D2right2_0" arrivalPos="286.40" arrivalSpeed="13.57" duration="214.00" routeLength="1795.52" waitingTime="62.00" waitingCount="3" stopTime="0.00" timeLoss="86.99" rerouteNo="0" devices="tripinfo_43" vType="DEFAULT_VEHTYPE" speedFactor="1.03" vaporized=""/>
    <tripinfo id="50" depart="222.00" departLane="bottom3D0_0" departPos="5.10" departSpeed="0.00" departDelay="0.00" arrival="420.00" arrivalLane="A1left1_0" arrivalPos="286.40" arrivalSpeed="12.34" duration="198.00" routeLength="1795.52" waitingTime="33.00" waitingCount="3" stopTime="0.00" timeLoss="61.24" rerouteNo="0" devices="tripinfo_50" vType="DEFAULT_VEHTYPE" speedFactor="0.95" vaporized=""/>
    <tripinfo id="58" depart="253.00" departLane="bottom0A0_0" departPos="5.10" departSpeed="0.00" departDelay="0.00" arrival="420.00" arrivalLane="A3top0_0" arrivalPos="286.40" arrivalSpeed="13.35" duration="167.00" routeLength="1495.58" waitingTime="37.00" waitingCount="3" stopTime="0.00" timeLoss="62.36" rerouteNo="0" devices="tripinfo_58" vType="DEFAULT_VEHTYPE" speedFactor="1.03" vaporized=""/>
    <tripinfo id="51" depart="225.00" departLane="right2D2_0" departPos="5.10" departSpeed="0.00" departDelay="0.00" arrival="426.00" arrivalLane="D2right2_0" arrivalPos="286.40" arrivalSpeed="15.97" duration="201.00" routeLength="1748.75" waitingTime="55.00" waitingCount="4" stopTime="0.00" timeLoss="89.88" rerouteNo="0" devices="tripinfo_51" vType="DEFAULT_VEHTYPE" speedFactor="1.15" vaporized=""/>
    <tripinfo id="42" depart="202.00" departLane="right0D0_0" departPos="5.10" departSpeed="0.00" departDelay="0.00" arrival="427.00" arrivalLane="A0left0_0" arrivalPos="286.40" arrivalSpeed="14.80" duration="225.00" routeLength="1495.58" waitingTime="99.00" waitingCount="4" stopTime="0.00" timeLoss="126.94" rerouteNo="0" devices="tripinfo_42" vType="DEFAULT_VEHTYPE" speedFactor="1.10" vaporized=""/>
    <tripinfo id="55" depart="248.00" departLane="right3D3_0" departPos="5.10" departSpeed="0.00" departDelay="0.00" arrival="427.00" arrivalLane="B3top1_0" arrivalPos="286.40" arrivalSpeed="13.01" duration="179.00" routeLength="1177.07" waitingTime="69.00" waitingCount="3" stopTime="0.00" timeLoss="92.13" rerouteNo="0" devices="tripinfo_55" vType="DEFAULT_VEHTYPE" speedFactor="0.99" vaporized=""/>
    <tripinfo id="79" depart="352.00" departLane="top1B3_0" departPos="5.10" departSpeed="0.00" departDelay="0.00" arrival="446.00" arrivalLane="A3top0_0" arrivalPos="286.40" arrivalSpeed="10.67" duration="94.00" routeLength="858.56" waitingTime="2.00" waitingCount="2" stopTime="0.00" timeLoss="16.44" rerouteNo="0" devices="tripinfo_79" vType="DEFAULT_VEHTYPE" speedFactor="0.82" vaporized=""/>
    <tripinfo id="9" depart="54.00" departLane="top3D3_0" departPos="5.10" departSpeed="0.00" departDelay="0.00" arrival="451.00" arrivalLane="A0bottom0_0" arrivalPos="286.40" arrivalSpeed="11.83" duration="397.00" routeLength="2382.93" waitingTime="158.00" waitingCount="7" stopTime="0.00" timeLoss="205.34" rerouteNo="0" devices="tripinfo_9" vType="DEFAULT_VEHTYPE" speedFactor="0.90" vaporized=""/>
    <tripinfo id="57" depart="252.00" departLane="bottom3D0_0" departPos="5.10" departSpeed="0.00" departDelay="0.00" arrival="451.00" arrivalLane="A0bottom0_1" arrivalPos="286.40" arrivalSpeed="12.81" duration="199.00" routeLength="1497.83" waitingTime="49.00" waitingCount="4" stopTime="0.00" timeLoss="90.75" rerouteNo="0" devices="tripinfo_57" vType="DEFAULT_VEHTYPE" speedFactor="1.00" vaporized=""/>
    <tripinfo id="48" depart="215.00" departLane="left1A1_0" departPos="5.10" departSpeed="0.00" departDelay="0.00" arrival="458.00" arrivalLane="B3top1_0" arrivalPos="286.40" arrivalSpeed="13.83" duration="243.00" routeLength="1495.35" waitingTime="107.00" waitingCount="4" stopTime="0.00" timeLoss="139.58" rerouteNo="0" devices="tripinfo_48" vType="DEFAULT_VEHTYPE" speedFactor="1.05" vaporized=""/>
    <tripinfo id="72" depart="321.00" departLane="top0A3_0" departPos="5.10" departSpeed="0.00" departDelay="0.00" arrival="459.00" arrivalLane="C3top2_0" arrivalPos="286.40" arrivalSpeed="13.32" duration="138.00" routeLength="1197.66" waitingTime="33.00" waitingCount="2" stopTime="0.00" timeLoss="51.06" rerouteNo="0" devices="tripinfo_72" vType="DEFAULT_VEHTYPE" speedFactor="1.00" vaporized=""/>
    <tripinfo id="77" depart="336.00" departLane="bottom0A0_0" departPos="5.10" departSpeed="0.00" departDelay="0.00" arrival="459.00" arrivalLane="A1left1_0" arrivalPos="286.40" arrivalSpeed="13.60" duration="123.00" routeLength="897.72" waitingTime="41.00" waitingCount="2" stopTime="0.00" timeLoss="56.56" rerouteNo="0" devices="tripinfo_77" vType="DEFAULT_VEHTYPE" speedFactor="0.98" vaporized=""/>
    <tripinfo id="40" depart="200.00" departLane="right2D2_0" departPos="5.10" departSpeed="0.00" departDelay="1.00" arrival="460.00" arrivalLane="B0bottom1_0" arrivalPos="286.40" arrivalSpeed="14.54" duration="260.00" routeLength="1795.52" waitingTime="103.00" waitingCount="4" stopTime="0.00" timeLoss="136.40" rerouteNo="0" devices="tripinfo_40" vType="DEFAULT_VEHTYPE" speedFactor="1.05" vaporized=""/>
    <tripinfo id="82" depart="366.00" departLane="left0A0_0" departPos="5.10" departSpeed="0.00" departDelay="0.00" arrival="467.00" arrivalLane="B0bottom1_0" arrivalPos="286.40" arrivalSpeed="12.09" duration="101.00" routeLength="876.90" waitingTime="14.00" waitingCount="2" stopTime="0.00" timeLoss="31.58" rerouteNo="0" devices="tripinfo_82" vType="DEFAULT_VEHTYPE" speedFactor="0.92" vaporized=""/>
    <tripinfo id="65" depart="297.00" departLane="top0A3_0" departPos="5.10" departSpeed="0.00" departDelay="0.00" arrival="471.00" arrivalLane="D2right2_0" arrivalPos="286.40" arrivalSpeed="14.38" duration="174.00" routeLength="1795.52" waitingTime="13.00" waitingCount="3" stopTime="0.00" timeLoss="50.03" rerouteNo="0" devices="tripinfo_65" vType="DEFAULT_VEHTYPE" speedFactor="1.05" vaporized=""/>
    <tripinfo id="56" depart="250.00" departLane="top0A3_0" departPos="5.10" departSpeed="0.00" departDelay="0.00" arrival="477.00" arrivalLane="A0left0_0" arrivalPos="286.40" arrivalSpeed="11.42" duration="227.00" routeLength="1477.24" waitingTime="82.00" waitingCount="3" stopTime="0.00" timeLoss="107.19" rerouteNo="0" devices="tripinfo_56" vType="DEFAULT_VEHTYPE" speedFactor="0.89" vaporized=""/>
    <tripinfo id="76" depart="335.00" departLane="left3A3_0" departPos="5.10" departSpeed="0.00" departDelay="3.00" arrival="482.00" arrivalLane="A0left0_0" arrivalPos="286.40" arrivalSpeed="11.93" duration="147.00" routeLength="1461.60" waitingTime="4.00" waitingCount="3" stopTime="0.00" timeLoss="32.44" rerouteNo="0" devices="tripinfo_76" vType="DEFAULT_VEHTYPE" speedFactor="0.93" vaporized=""/>
    <tripinfo id="74" depart="332.00" departLane="left3A3_0" departPos="5.10" departSpeed="0.00" departDelay="0.00" arrival="483.00" arrivalLane="B3top1_0" arrivalPos="286.40" arrivalSpeed="11.68" duration="151.00" routeLength="897.72" waitingTime="60.00" waitingCount="1" stopTime="0.00" timeLoss="73.10" rerouteNo="0" devices="tripinfo_74" vType="DEFAULT_VEHTYPE" speedFactor="0.84" vaporized=""/>
    <tripinfo id="75" depart="332.00" departLane="left1A1_0" departPos="5.10" departSpeed="0.00" departDelay="0.00" arrival="486.00" arrivalLane="C0bottom2_0" arrivalPos="286.40" arrivalSpeed="15.94" duration="154.00" routeLength="1479.94" waitingTime="37.00" waitingCount="3" stopTime="0.00" timeLoss="62.10" rerouteNo="0" devices="tripinfo_75" vType="DEFAULT_VEHTYPE" speedFactor="1.17" vaporized=""/>
    <tripinfo id="35" depart="180.00" departLane="bottom0A0_0" departPos="5.10" departSpeed="0.00" departDelay="0.00" arrival="498.00" arrivalLane="D3right3_0" arrivalPos="286.40" arrivalSpeed="14.69" duration="318.00" routeLength="2380.45" waitingTime="112.00" waitingCount="7" stopTime="0.00" timeLoss="161.11" rerouteNo="0" devices="tripinfo_35" vType="DEFAULT_VEHTYPE" speedFactor="1.10" vaporized=""/>
    <tripinfo id="69" depart="310.00" departLane="top2C3_0" departPos="5.10" departSpeed="0.00" departDelay="0.00" arrival="523.00" arrivalLane="D1right1_0" arrivalPos="286.40" arrivalSpeed="11.35" duration="213.00" routeLength="1495.35" waitingTime="67.00" waitingCount="3" stopTime="0.00" timeLoss="85.96" rerouteNo="0" devices="tripinfo_69" vType="DEFAULT_VEHTYPE" speedFactor="0.86" vaporized=""/>