<?xml version="1.0" encoding="UTF-8"?>

<!-- generated on 12/21/21 13:54:52 by Eclipse SUMO sumo Version 1.7.0
<configuration xmlns:xsi="http://www.w3.org/2001/XMLSchema-instance" xsi:noNamespaceSchemaLocation="http://sumo.dlr.de/xsd/sumoConfiguration.xsd">

    <input>
        <net-file value="C:\Users\longs\Desktop\RESCO-main\environments\grid4x4\grid4x4.net.xml"/>
        <route-files value="C:\Users\longs\Desktop\RESCO-main\environments\grid4x4\grid4x4_9.rou.xml"/>
    </input>

    <output>
        <tripinfo-output value="C:\Users\longs\Desktop\RESCO-main\logs\IDQN-tr1-grid4x4-0-drqlong-delaydiff_pressure0\tripinfo_9.xml"/>
        <tripinfo-output.write-unfinished value="true"/>
    </output>

    <processing>
        <time-to-teleport value="-1"/>
    </processing>

    <report>
        <no-warnings value="true"/>
        <no-step-log value="true"/>
    </report>

    <traci_server>
        <remote-port value="61857"/>
    </traci_server>

    <random_number>
        <random value="true"/>
    </random_number>

</configuration>
-->

<tripinfos xmlns:xsi="http://www.w3.org/2001/XMLSchema-instance" xsi:noNamespaceSchemaLocation="http://sumo.dlr.de/xsd/tripinfo_file.xsd">
    <tripinfo id="0" depart="4.00" departLane="bottom3D0_0" departPos="5.10" departSpeed="0.00" departDelay="0.00" arrival="101.00" arrivalLane="D1right1_0" arrivalPos="286.40" arrivalSpeed="11.60" duration="97.00" routeLength="876.90" waitingTime="9.00" waitingCount="1" stopTime="0.00" timeLoss="22.70" rerouteNo="0" devices="tripinfo_0" vType="DEFAULT_VEHTYPE" speedFactor="0.86" vaporized=""/>
    <tripinfo id="12" depart="67.00" departLane="top0A3_0" departPos="5.10" departSpeed="0.00" departDelay="0.00" arrival="111.00" arrivalLane="A3left3_0" arrivalPos="286.40" arrivalSpeed="15.10" duration="44.00" routeLength="576.73" waitingTime="0.00" waitingCount="0" stopTime="0.00" timeLoss="7.36" rerouteNo="0" devices="tripinfo_12" vType="DEFAULT_VEHTYPE" speedFactor="1.17" vaporized=""/>
    <tripinfo id="6" depart="22.00" departLane="bottom1B0_0" departPos="5.10" departSpeed="0.00" departDelay="0.00" arrival="138.00" arrivalLane="A0left0_0" arrivalPos="286.40" arrivalSpeed="14.50" duration="116.00" routeLength="895.01" waitingTime="41.00" waitingCount="1" stopTime="0.00" timeLoss="53.97" rerouteNo="0" devices="tripinfo_6" vType="DEFAULT_VEHTYPE" speedFactor="1.05" vaporized=""/>
    <tripinfo id="1" depart="11.00" departLane="left1A1_0" departPos="5.10" departSpeed="0.00" departDelay="0.00" arrival="157.00" arrivalLane="A1left1_0" arrivalPos="286.40" arrivalSpeed="14.24" duration="146.00" routeLength="1748.75" waitingTime="2.00" waitingCount="2" stopTime="0.00" timeLoss="25.29" rerouteNo="0" devices="tripinfo_1" vType="DEFAULT_VEHTYPE" speedFactor="1.06" vaporized=""/>
    <tripinfo id="4" depart="19.00" departLane="left3A3_0" departPos="5.10" departSpeed="0.00" departDelay="0.00" arrival="171.00" arrivalLane="A0left0_0" arrivalPos="286.40" arrivalSpeed="13.81" duration="152.00" routeLength="1461.60" waitingTime="22.00" waitingCount="3" stopTime="0.00" timeLoss="51.33" rerouteNo="0" devices="tripinfo_4" vType="DEFAULT_VEHTYPE" speedFactor="1.06" vaporized=""/>
    <tripinfo id="3" depart="18.00" departLane="bottom2C0_0" departPos="5.10" departSpeed="0.00" departDelay="0.00" arrival="180.00" arrivalLane="D3top3_0" arrivalPos="286.40" arrivalSpeed="14.97" duration="162.00" routeLength="1782.72" waitingTime="18.00" waitingCount="2" stopTime="0.00" timeLoss="41.45" rerouteNo="0" devices="tripinfo_3" vType="DEFAULT_VEHTYPE" speedFactor="1.08" vaporized=""/>
    <tripinfo id="13" depart="69.00" departLane="top2C3_0" departPos="5.10" departSpeed="0.00" departDelay="0.00" arrival="182.00" arrivalLane="D2right2_0" arrivalPos="286.40" arrivalSpeed="13.53" duration="113.00" routeLength="1195.18" waitingTime="4.00" waitingCount="1" stopTime="0.00" timeLoss="25.99" rerouteNo="0" devices="tripinfo_13" vType="DEFAULT_VEHTYPE" speedFactor="1.00" vaporized=""/>
    <tripinfo id="8" depart="41.00" departLane="top2C3_0" departPos="5.10" departSpeed="0.00" departDelay="0.00" arrival="220.00" arrivalLane="D3top3_0" arrivalPos="286.40" arrivalSpeed="13.35" duration="179.00" routeLength="894.86" waitingTime="95.00" waitingCount="2" stopTime="0.00" timeLoss="111.17" rerouteNo="0" devices="tripinfo_8" vType="DEFAULT_VEHTYPE" speedFactor="0.96" vaporized=""/>
    <tripinfo id="15" depart="82.00" departLane="top1B3_0" departPos="5.10" departSpeed="0.00" departDelay="0.00" arrival="220.00" arrivalLane="D3right3_0" arrivalPos="286.40" arrivalSpeed="14.62" duration="138.00" routeLength="1195.18" waitingTime="37.00" waitingCount="2" stopTime="0.00" timeLoss="56.00" rerouteNo="0" devices="tripinfo_15" vType="DEFAULT_VEHTYPE" speedFactor="1.06" vaporized=""/>
    <tripinfo id="7" depart="40.00" departLane="right0D0_0" departPos="5.10" departSpeed="0.00" departDelay="0.00" arrival="241.00" arrivalLane="A0left0_0" arrivalPos="286.40" arrivalSpeed="14.07" duration="201.00" routeLength="1495.58" waitingTime="70.00" waitingCount="3" stopTime="0.00" timeLoss="94.31" rerouteNo="0" devices="tripinfo_7" vType="DEFAULT_VEHTYPE" speedFactor="1.01" vaporized=""/>
    <tripinfo id="14" depart="72.00" departLane="top2C3_0" departPos="5.10" departSpeed="0.00" departDelay="3.00" arrival="241.00" arrivalLane="C0bottom2_0" arrivalPos="286.40" arrivalSpeed="13.12" duration="169.00" routeLength="1495.58" waitingTime="37.00" waitingCount="2" stopTime="0.00" timeLoss="63.33" rerouteNo="0" devices="tripinfo_14" vType="DEFAULT_VEHTYPE" speedFactor="1.03" vaporized=""/>
    <tripinfo id="23" depart="127.00" departLane="top1B3_0" departPos="5.10" departSpeed="0.00" departDelay="0.00" arrival="249.00" arrivalLane="D3top3_0" arrivalPos="286.40" arrivalSpeed="14.26" duration="122.00" routeLength="1197.66" waitingTime="13.00" waitingCount="3" stopTime="0.00" timeLoss="36.98" rerouteNo="0" devices="tripinfo_23" vType="DEFAULT_VEHTYPE" speedFactor="1.04" vaporized=""/>
    <tripinfo id="2" depart="15.00" departLane="bottom1B0_0" departPos="5.10" departSpeed="0.00" departDelay="0.00" arrival="258.00" arrivalLane="A1left1_0" arrivalPos="286.40" arrivalSpeed="14.52" duration="243.00" routeLength="1195.18" waitingTime="145.00" waitingCount="2" stopTime="0.00" timeLoss="163.70" rerouteNo="0" devices="tripinfo_2" vType="DEFAULT_VEHTYPE" speedFactor="1.10" vaporized=""/>
    <tripinfo id="42" depart="206.00" departLane="bottom3D0_0" departPos="5.10" departSpeed="0.00" departDelay="0.00" arrival="260.00" arrivalLane="D0right0_0" arrivalPos="286.40" arrivalSpeed="11.49" duration="54.00" routeLength="576.73" waitingTime="0.00" waitingCount="0" stopTime="0.00" timeLoss="7.14" rerouteNo="0" devices="tripinfo_42" vType="DEFAULT_VEHTYPE" speedFactor="0.92" vaporized=""/>
    <tripinfo id="10" depart="60.00" departLane="top3D3_0" departPos="5.10" departSpeed="0.00" departDelay="0.00" arrival="298.00" arrivalLane="A2left2_0" arrivalPos="286.40" arrivalSpeed="14.87" duration="238.00" routeLength="1780.11" waitingTime="90.00" waitingCount="3" stopTime="0.00" timeLoss="119.25" rerouteNo="0" devices="tripinfo_10" vType="DEFAULT_VEHTYPE" speedFactor="1.09" vaporized=""/>
    <tripinfo id="48" depart="232.00" departLane="top3D3_0" departPos="5.10" departSpeed="0.00" departDelay="0.00" arrival="298.00" arrivalLane="D3right3_0" arrivalPos="286.40" arrivalSpeed="14.93" duration="66.00" routeLength="597.55" waitingTime="14.00" waitingCount="1" stopTime="0.00" timeLoss="25.98" rerouteNo="0" devices="tripinfo_48" vType="DEFAULT_VEHTYPE" speedFactor="1.11" vaporized=""/>
    <tripinfo id="11" depart="66.00" departLane="bottom2C0_0" departPos="5.10" departSpeed="0.00" departDelay="0.00" arrival="304.00" arrivalLane="A2left2_0" arrivalPos="286.40" arrivalSpeed="11.89" duration="238.00" routeLength="1795.52" waitingTime="56.00" waitingCount="3" stopTime="0.00" timeLoss="89.59" rerouteNo="0" devices="tripinfo_11" vType="DEFAULT_VEHTYPE" speedFactor="0.88" vaporized=""/>
    <tripinfo id="43" depart="206.00" departLane="right0D0_0" departPos="5.10" departSpeed="0.00" departDelay="0.00" arrival="311.00" arrivalLane="D2right2_0" arrivalPos="286.40" arrivalSpeed="13.71" duration="105.00" routeLength="1161.43" waitingTime="2.00" waitingCount="2" stopTime="0.00" timeLoss="20.97" rerouteNo="0" devices="tripinfo_43" vType="DEFAULT_VEHTYPE" speedFactor="1.01" vaporized=""/>
    <tripinfo id="40" depart="196.00" departLane="right2D2_0" departPos="5.10" departSpeed="0.00" departDelay="0.00" arrival="317.00" arrivalLane="C3top2_0" arrivalPos="286.40" arrivalSpeed="15.75" duration="121.00" routeLength="1179.77" waitingTime="24.00" waitingCount="2" stopTime="0.00" timeLoss="45.99" rerouteNo="0" devices="tripinfo_40" vType="DEFAULT_VEHTYPE" speedFactor="1.14" vaporized=""/>
    <tripinfo id="45" depart="213.00" departLane="left0A0_0" departPos="5.10" departSpeed="0.00" departDelay="0.00" arrival="317.00" arrivalLane="A1left1_0" arrivalPos="286.40" arrivalSpeed="15.24" duration="104.00" routeLength="894.86" waitingTime="27.00" waitingCount="2" stopTime="0.00" timeLoss="44.54" rerouteNo="0" devices="tripinfo_45" vType="DEFAULT_VEHTYPE" speedFactor="1.11" vaporized=""/>
    <tripinfo id="19" depart="101.00" departLane="left0A0_0" departPos="5.10" departSpeed="0.00" departDelay="0.00" arrival="323.00" arrivalLane="D0bottom3_0" arrivalPos="286.40" arrivalSpeed="13.74" duration="222.00" routeLength="1477.24" waitingTime="95.00" waitingCount="3" stopTime="0.00" timeLoss="122.87" rerouteNo="0" devices="tripinfo_19" vType="DEFAULT_VEHTYPE" speedFactor="1.08" vaporized=""/>
    <tripinfo id="49" depart="237.00" departLane="top1B3_0" departPos="5.10" departSpeed="0.00" departDelay="0.00" arrival="325.00" arrivalLane="A3top0_0" arrivalPos="286.40" arrivalSpeed="11.65" duration="88.00" routeLength="858.56" waitingTime="2.00" waitingCount="2" stopTime="0.00" timeLoss="16.87" rerouteNo="0" devices="tripinfo_49" vType="DEFAULT_VEHTYPE" speedFactor="0.89" vaporized=""/>
    <tripinfo id="59" depart="274.00" departLane="left0A0_0" departPos="5.10" departSpeed="0.00" departDelay="0.00" arrival="327.00" arrivalLane="A0bottom0_0" arrivalPos="286.40" arrivalSpeed="13.27" duration="53.00" routeLength="576.73" waitingTime="1.00" waitingCount="1" stopTime="0.00" timeLoss="11.34" rerouteNo="0" devices="tripinfo_59" vType="DEFAULT_VEHTYPE" speedFactor="1.03" vaporized=""/>
    <tripinfo id="20" depart="104.00" departLane="bottom0A0_0" departPos="5.10" departSpeed="0.00" departDelay="0.00" arrival="337.00" arrivalLane="D0right0_0" arrivalPos="286.40" arrivalSpeed="14.13" duration="233.00" routeLength="1479.94" waitingTime="101.00" waitingCount="4" stopTime="0.00" timeLoss="132.06" rerouteNo="0" devices="tripinfo_20" vType="DEFAULT_VEHTYPE" speedFactor="1.06" vaporized=""/>
    <tripinfo id="34" depart="182.00" departLane="bottom0A0_0" departPos="5.10" departSpeed="0.00" departDelay="0.00" arrival="339.00" arrivalLane="D0right0_1" arrivalPos="286.40" arrivalSpeed="14.52" duration="157.00" routeLength="1479.94" waitingTime="25.00" waitingCount="4" stopTime="0.00" timeLoss="61.37" rerouteNo="0" devices="tripinfo_34" vType="DEFAULT_VEHTYPE" speedFactor="1.13" vaporized=""/>
    <tripinfo id="18" depart="100.00" departLane="right1D1_0" departPos="5.10" departSpeed="0.00" departDelay="0.00" arrival="340.00" arrivalLane="A3top0_0" arrivalPos="286.40" arrivalSpeed="12.71" duration="240.00" routeLength="2080.28" waitingTime="51.00" waitingCount="4" stopTime="0.00" timeLoss="86.33" rerouteNo="0" devices="tripinfo_18" vType="DEFAULT_VEHTYPE" speedFactor="0.98" vaporized=""/>
    <tripinfo id="9" depart="53.00" departLane="top1B3_0" departPos="5.10" departSpeed="0.00" departDelay="0.00" arrival="341.00" arrivalLane="D0right0_0" arrivalPos="286.40" arrivalSpeed="14.17" duration="288.00" routeLength="2095.69" waitingTime="103.00" waitingCount="5" stopTime="0.00" timeLoss="142.59" rerouteNo="0" devices="tripinfo_9" vType="DEFAULT_VEHTYPE" speedFactor="1.04" vaporized=""/>
    <tripinfo id="17" depart="88.00" departLane="top3D3_0" departPos="5.10" departSpeed="0.00" departDelay="0.00" arrival="344.00" arrivalLane="A2left2_0" arrivalPos="286.40" arrivalSpeed="11.24" duration="256.00" routeLength="1780.11" waitingTime="70.00" waitingCount="3" stopTime="0.00" timeLoss="100.58" rerouteNo="0" devices="tripinfo_17" vType="DEFAULT_VEHTYPE" speedFactor="0.83" vaporized=""/>
    <tripinfo id="16" depart="88.00" departLane="left0A0_0" departPos="5.10" departSpeed="0.00" departDelay="0.00" arrival="349.00" arrivalLane="D2right2_0" arrivalPos="286.40" arrivalSpeed="13.57" duration="261.00" routeLength="2080.05" waitingTime="68.00" waitingCount="4" stopTime="0.00" timeLoss="108.22" rerouteNo="0" devices="tripinfo_16" vType="DEFAULT_VEHTYPE" speedFactor="0.99" vaporized=""/>
    <tripinfo id="32" depart="177.00" departLane="left0A0_0" departPos="5.10" departSpeed="0.00" departDelay="0.00" arrival="357.00" arrivalLane="A2left2_0" arrivalPos="286.40" arrivalSpeed="14.05" duration="180.00" routeLength="1197.66" waitingTime="77.00" waitingCount="3" stopTime="0.00" timeLoss="100.48" rerouteNo="0" devices="tripinfo_32" vType="DEFAULT_VEHTYPE" speedFactor="1.09" vaporized=""/>
    <tripinfo id="51" depart="242.00" departLane="top2C3_0" departPos="5.10" departSpeed="0.00" departDelay="0.00" arrival="358.00" arrivalLane="A3top0_0" arrivalPos="286.40" arrivalSpeed="13.64" duration="116.00" routeLength="1161.43" waitingTime="6.00" waitingCount="3" stopTime="0.00" timeLoss="30.31" rerouteNo="0" devices="tripinfo_51" vType="DEFAULT_VEHTYPE" speedFactor="0.99" vaporized=""/>
    <tripinfo id="22" depart="118.00" departLane="top3D3_0" departPos="5.10" departSpeed="0.00" departDelay="0.00" arrival="375.00" arrivalLane="B0bottom1_0" arrivalPos="286.40" arrivalSpeed="12.03" duration="257.00" routeLength="2082.76" waitingTime="65.00" waitingCount="4" stopTime="0.00" timeLoss="96.24" rerouteNo="0" devices="tripinfo_22" vType="DEFAULT_VEHTYPE" speedFactor="0.94" vaporized=""/>
    <tripinfo id="55" depart="250.00" departLane="bottom3D0_0" departPos="5.10" departSpeed="0.00" departDelay="0.00" arrival="377.00" arrivalLane="D3right3_0" arrivalPos="286.40" arrivalSpeed="15.83" duration="127.00" routeLength="1477.24" waitingTime="12.00" waitingCount="2" stopTime="0.00" timeLoss="33.59" rerouteNo="0" devices="tripinfo_55" vType="DEFAULT_VEHTYPE" speedFactor="1.15" vaporized=""/>
    <tripinfo id="41" depart="201.00" departLane="bottom1B0_0" departPos="5.10" departSpeed="0.00" departDelay="0.00" arrival="382.00" arrivalLane="D1right1_0" arrivalPos="286.40" arrivalSpeed="11.38" duration="181.00" routeLength="1479.94" waitingTime="33.00" waitingCount="3" stopTime="0.00" timeLoss="58.99" rerouteNo="0" devices="tripinfo_41" vType="DEFAULT_VEHTYPE" speedFactor="0.88" vaporized=""/>
    <tripinfo id="62" depart="283.00" departLane="right1D1_0" departPos="5.10" departSpeed="0.00" departDelay="0.00" arrival="383.00" arrivalLane="D3right3_0" arrivalPos="286.40" arrivalSpeed="14.40" duration="100.00" routeLength="1161.43" waitingTime="1.00" waitingCount="1" stopTime="0.00" timeLoss="18.48" rerouteNo="0" devices="tripinfo_62" vType="DEFAULT_VEHTYPE" speedFactor="1.05" vaporized=""/>
    <tripinfo id="39" depart="196.00" departLane="top3D3_0" departPos="5.10" departSpeed="0.00" departDelay="0.00" arrival="387.00" arrivalLane="B0bottom1_0" arrivalPos="286.40" arrivalSpeed="14.64" duration="191.00" routeLength="2082.76" waitingTime="24.00" waitingCount="3" stopTime="0.00" timeLoss="55.03" rerouteNo="0" devices="tripinfo_39" vType="DEFAULT_VEHTYPE" speedFactor="1.12" vaporized=""/>
    <tripinfo id="36" depart="192.00" departLane="bottom0A0_0" departPos="5.10" departSpeed="0.00" departDelay="0.00" arrival="388.00" arrivalLane="B3top1_0" arrivalPos="286.40" arrivalSpeed="13.83" duration="196.00" routeLength="1782.72" waitingTime="38.00" waitingCount="4" stopTime="0.00" timeLoss="69.30" rerouteNo="0" devices="tripinfo_36" vType="DEFAULT_VEHTYPE" speedFactor="1.03" vaporized=""/>
    <tripinfo id="24" depart="134.00" departLane="right2D2_0" departPos="5.10" departSpeed="0.00" departDelay="0.00" arrival="391.00" arrivalLane="A0left0_0" arrivalPos="286.40" arrivalSpeed="13.59" duration="257.00" routeLength="2080.05" waitingTime="77.00" waitingCount="3" stopTime="0.00" timeLoss="106.55" rerouteNo="0" devices="tripinfo_24" vType="DEFAULT_VEHTYPE" speedFactor="1.00" vaporized=""/>
    <tripinfo id="29" depart="175.00" departLane="top0A3_0" departPos="5.10" departSpeed="0.00" departDelay="0.00" arrival="395.00" arrivalLane="A0bottom0_0" arrivalPos="286.40" arrivalSpeed="15.90" duration="220.00" routeLength="1495.58" waitingTime="106.00" waitingCount="3" stopTime="0.00" timeLoss="132.25" rerouteNo="0" devices="tripinfo_29" vType="DEFAULT_VEHTYPE" speedFactor="1.24" vaporized=""/>
    <tripinfo id="53" depart="248.00" departLane="left0A0_0" departPos="5.10" departSpeed="0.00" departDelay="0.00" arrival="397.00" arrivalLane="D0bottom3_0" arrivalPos="286.40" arrivalSpeed="10.80" duration="149.00" routeLength="1477.24" waitingTime="1.00" waitingCount="1" stopTime="0.00" timeLoss="16.15" rerouteNo="0" devices="tripinfo_53" vType="DEFAULT_VEHTYPE" speedFactor="0.81" vaporized=""/>
    <tripinfo id="58" depart="262.00" departLane="right0D0_0" departPos="5.10" departSpeed="0.00" departDelay="0.00" arrival="400.00" arrivalLane="C0bottom2_0" arrivalPos="286.40" arrivalSpeed="13.30" duration="138.00" routeLength="897.72" waitingTime="55.00" waitingCount="2" stopTime="0.00" timeLoss="69.54" rerouteNo="0" devices="tripinfo_58" vType="DEFAULT_VEHTYPE" speedFactor="0.96" vaporized=""/>
    <tripinfo id="44" depart="207.00" departLane="bottom0A0_0" departPos="5.10" departSpeed="0.00" departDelay="0.00" arrival="407.00" arrivalLane="D2right2_0" arrivalPos="286.40" arrivalSpeed="14.73" duration="200.00" routeLength="2080.28" waitingTime="34.00" waitingCount="2" stopTime="0.00" timeLoss="60.00" rerouteNo="0" devices="tripinfo_44" vType="DEFAULT_VEHTYPE" speedFactor="1.08" vaporized=""/>
    <tripinfo id="21" depart="110.00" departLane="bottom0A0_0" departPos="5.10" departSpeed="0.00" departDelay="0.00" arrival="408.00" arrivalLane="D3right3_0" arrivalPos="286.40" arrivalSpeed="14.52" duration="298.00" routeLength="2380.45" waitingTime="96.00" waitingCount="5" stopTime="0.00" timeLoss="135.16" rerouteNo="0" devices="tripinfo_21" vType="DEFAULT_VEHTYPE" speedFactor="1.06" vaporized=""/>
    <tripinfo id="28" depart="169.00" departLane="bottom1B0_0" departPos="5.10" departSpeed="0.00" departDelay="0.00" arrival="409.00" arrivalLane="D3right3_1" arrivalPos="286.40" arrivalSpeed="15.37" duration="240.00" routeLength="2080.28" waitingTime="71.00" waitingCount="5" stopTime="0.00" timeLoss="113.67" rerouteNo="0" devices="tripinfo_28" vType="DEFAULT_VEHTYPE" speedFactor="1.19" vaporized=""/>
    <tripinfo id="26" depart="161.00" departLane="left2A2_0" departPos="5.10" departSpeed="0.00" departDelay="0.00" arrival="410.00" arrivalLane="D3right3_0" arrivalPos="286.40" arrivalSpeed="14.71" duration="249.00" routeLength="1782.59" waitingTime="96.00" waitingCount="4" stopTime="0.00" timeLoss="129.21" rerouteNo="0" devices="tripinfo_26" vType="DEFAULT_VEHTYPE" speedFactor="1.09" vaporized=""/>
    <tripinfo id="25" depart="139.00" departLane="left1A1_0" departPos="5.10" departSpeed="0.00" departDelay="0.00" arrival="421.00" arrivalLane="A1left1_0" arrivalPos="286.40" arrivalSpeed="12.43" duration="282.00" routeLength="1748.75" waitingTime="114.00" waitingCount="4" stopTime="0.00" timeLoss="144.88" rerouteNo="0" devices="tripinfo_25" vType="DEFAULT_VEHTYPE" speedFactor="0.93" vaporized=""/>
    <tripinfo id="63" depart="284.00" departLane="bottom0A0_0" departPos="5.10" departSpeed="0.00" departDelay="0.00" arrival="427.00" arrivalLane="D0right0_0" arrivalPos="286.40" arrivalSpeed="15.23" duration="143.00" routeLength="1479.94" waitingTime="27.00" waitingCount="2" stopTime="0.00" timeLoss="46.94" rerouteNo="0" devices="tripinfo_63" vType="DEFAULT_VEHTYPE" speedFactor="1.13" vaporized=""/>
    <tripinfo id="5" depart="21.00" departLane="top3D3_0" departPos="5.10" departSpeed="0.00" departDelay="0.00" arrival="431.00" arrivalLane="A1left1_0" arrivalPos="286.40" arrivalSpeed="11.83" duration="410.00" routeLength="2080.28" waitingTime="216.00" waitingCount="5" stopTime="0.00" timeLoss="248.75" rerouteNo="0" devices="tripinfo_5" vType="DEFAULT_VEHTYPE" speedFactor="0.93" vaporized=""/>
    <tripinfo id="38" depart="194.00" departLane="bottom2C0_0" departPos="5.10" departSpeed="0.00" departDelay="0.00" arrival="432.00" arrivalLane="A1left1_1" arrivalPos="286.40" arrivalSpeed="13.44" duration="238.00" routeLength="1495.35" waitingTime="102.00" waitingCount="3" stopTime="0.00" timeLoss="128.32" rerouteNo="0" devices="tripinfo_38" vType="DEFAULT_VEHTYPE" speedFactor="0.99" vaporized=""/>
    <tripinfo id="56" depart="251.00" departLane="right3D3_0" departPos="5.10" departSpeed="0.00" departDelay="0.00" arrival="441.00" arrivalLane="A3left3_1" arrivalPos="286.40" arrivalSpeed="11.64" duration="190.00" routeLength="1495.58" waitingTime="44.00" waitingCount="2" stopTime="0.00" timeLoss="71.87" rerouteNo="0" devices="tripinfo_56" vType="DEFAULT_VEHTYPE" speedFactor="0.92" vaporized=""/>
    <tripinfo id="37" depart="193.00" departLane="right3D3_0" departPos="5.10" departSpeed="0.00" departDelay="0.00" arrival="442.00" arrivalLane="A3left3_0" arrivalPos="286.40" arrivalSpeed="10.37" duration="249.00" routeLength="1495.58" waitingTime="95.00" waitingCount="3" stopTime="0.00" timeLoss="116.87" rerouteNo="0" devices="tripinfo_37" vType="DEFAULT_VEHTYPE" speedFactor="0.82" vaporized=""/>
    <tripinfo id="52" depart="244.00" departLane="right1D1_0" departPos="5.10" departSpeed="0.00" departDelay="0.00" arrival="450.00" arrivalLane="D0right0_0" arrivalPos="286.40" arrivalSpeed="12.92" duration="206.00" routeLength="894.86" waitingTime="122.00" waitingCount="2" stopTime="0.00" timeLoss="140.02" rerouteNo="0" devices="tripinfo_52" vType="DEFAULT_VEHTYPE" speedFactor="1.00" vaporized=""/>
    <tripinfo id="54" depart="249.00" departLane="right1D1_0" departPos="5.10" departSpeed="0.00" departDelay="0.00" arrival="454.00" arrivalLane="D0right0_0" arrivalPos="286.40" arrivalSpeed="11.46" duration="205.00" routeLength="894.86" waitingTime="119.00" waitingCount="1" stopTime="0.00" timeLoss="132.75" rerouteNo="0" devices="tripinfo_54" vType="DEFAULT_VEHTYPE" speedFactor="0.91" vaporized=""/>
    <tripinfo id="50" depart="240.00" departLane="bottom0A0_0" departPos="5.10" departSpeed="0.00" departDelay="0.00" arrival="460.00" arrivalLane="D1right1_0" arrivalPos="286.40" arrivalSpeed="14.28" duration="220.00" routeLength="1780.11" waitingTime="65.00" waitingCount="4" stopTime="0.00" timeLoss="97.56" rerouteNo="0" devices="tripinfo_50" vType="DEFAULT_VEHTYPE" speedFactor="1.06" vaporized=""/>
    <tripinfo id="57" depart="259.00" departLane="left2A2_0" departPos="5.10" departSpeed="0.00" departDelay="0.00" arrival="461.00" arrivalLane="B3top1_0" arrivalPos="286.40" arrivalSpeed="12.65" duration="202.00" routeLength="1195.18" waitingTime="84.00" waitingCount="3" stopTime="0.00" timeLoss="107.04" rerouteNo="0" devices="tripinfo_57" vType="DEFAULT_VEHTYPE" speedFactor="0.92" vaporized=""/>
    <tripinfo id="31" depart="178.00" departLane="top2C3_0" departPos="5.10" departSpeed="0.00" departDelay="1.00" arrival="469.00" arrivalLane="D0right0_0" arrivalPos="286.40" arrivalSpeed="13.40" duration="291.00" routeLength="1795.52" waitingTime="125.00" waitingCount="4" stopTime="0.00" timeLoss="161.07" rerouteNo="0" devices="tripinfo_31" vType="DEFAULT_VEHTYPE" speedFactor="1.00" vaporized=""/>
    <tripinfo id="35" depart="183.00" departLane="bottom1B0_0" departPos="5.10" departSpeed="0.00" departDelay="0.00" arrival="470.00" arrivalLane="D3top3_0" arrivalPos="286.40" arrivalSpeed="12.74" duration="287.00" routeLength="2082.76" waitingTime="83.00" waitingCount="6" stopTime="0.00" timeLoss="127.30" rerouteNo="0" devices="tripinfo_35" vType="DEFAULT_VEHTYPE" speedFactor="0.94" vaporized=""/>
    <tripinfo id="79" depart="354.00" departLane="top0A3_0" departPos="5.10" departSpeed="0.00" departDelay="0.00" arrival="472.00" arrivalLane="B3top1_0" arrivalPos="286.40" arrivalSpeed="11.44" duration="118.00" routeLength="894.86" waitingTime="27.00" waitingCount="1" stopTime="0.00" timeLoss="44.52" rerouteNo="0" devices="tripinfo_79" vType="DEFAULT_VEHTYPE" speedFactor="0.89" vaporized=""/>
    <tripinfo id="86" depart="375.00" departLane="bottom2C0_0" departPos="5.10" departSpeed="0.00" departDelay="0.00" arrival="474.00" arrivalLane="D0right0_0" arrivalPos="286.40" arrivalSpeed="11.32" duration="99.00" routeLength="879.60" waitingTime="10.00" waitingCount="2" stopTime="0.00" timeLoss="24.65" rerouteNo="0" devices="tripinfo_86" vType="DEFAULT_VEHTYPE" speedFactor="0.86" vaporized=""/>
    <tripinfo id="30" depart="175.00" departLane="top2C3_0" departPos="5.10" departSpeed="0.00" departDelay="0.00" arrival="478.00" arrivalLane="A0bottom0_0" arrivalPos="286.40" arrivalSpeed="14.04" duration="303.00" routeLength="2082.76" waitingTime="123.00" waitingCount="5" stopTime="0.00" timeLoss="158.77" rerouteNo="0" devices="tripinfo_30" vType="DEFAULT_VEHTYPE" speedFactor="1.05" vaporized=""/>
    <tripinfo id="71" depart="309.00" departLane="right1D1_0" departPos="5.10" departSpeed="0.00" departDelay="0.00" arrival="478.00" arrivalLane="A0left0_0" arrivalPos="286.40" arrivalSpeed="12.33" duration="169.00" routeLength="1782.59" waitingTime="8.00" waitingCount="3" stopTime="0.00" timeLoss="35.66" rerouteNo="0" devices="tripinfo_71" vType="DEFAULT_VEHTYPE" speedFactor="0.97" vaporized=""/>
    <tripinfo id="81" depart="360.00" departLane="bottom2C0_0" departPos="5.10" departSpeed="0.00" departDelay="0.00" arrival="483.00" arrivalLane="A0bottom0_0" arrivalPos="286.40" arrivalSpeed="12.54" duration="123.00" routeLength="1197.66" waitingTime="12.00" waitingCount="2" stopTime="0.00" timeLoss="28.49" rerouteNo="0" devices="tripinfo_81" vType="DEFAULT_VEHTYPE" speedFactor="0.93" vaporized=""/>
    <tripinfo id="66" depart="287.00" departLane="left0A0_0" departPos="5.10" departSpeed="0.00" departDelay="0.00" arrival="484.00" arrivalLane="D0bottom3_0" arrivalPos="286.40" arrivalSpeed="13.11" duration="197.00" routeLength="1477.24" waitingTime="58.00" waitingCount="2" stopTime="0.00" timeLoss="85.26" rerouteNo="0" devices="tripinfo_66" vType="DEFAULT_VEHTYPE" speedFactor="0.96" vaporized=""/>
    <tripinfo id="33" depart="181.00" departLane="top2C3_0" departPos="5.10" departSpeed="0.00" departDelay="3.00" arrival="486.00" arrivalLane="A0bottom0_0" arrivalPos="286.40" arrivalSpeed="11.52" duration="305.00" routeLength="2082.76" waitingTime="100.00" waitingCount="5" stopTime="0.00" timeLoss="136.68" rerouteNo="0" devices="tripinfo_33" vType="DEFAULT_VEHTYPE" speedFactor="0.90" vaporized=""/>
    <tripinfo id="73" depart="316.00" departLane="left3A3_0" departPos="5.10" departSpeed="0.00" departDelay="0.00" arrival="488.00" arrivalLane="D3right3_0" arrivalPos="286.40" arrivalSpeed="14.36" duration="172.00" routeLength="1495.58" waitingTime="41.00" waitingCount="4" stopTime="0.00" timeLoss="71.80" rerouteNo="0" devices="tripinfo_73" vType="DEFAULT_VEHTYPE" speedFactor="1.08" vaporized=""/>
    <tripinfo id="91" depart="401.00" departLane="left2A2_0" departPos="5.10" departSpeed="0.00" departDelay="0.00" arrival="493.00" arrivalLane="A3left3_0" arrivalPos="286.40" arrivalSpeed="10.86" duration="92.00" routeLength="894.86" waitingTime="1.00" waitingCount="1" stopTime="0.00" timeLoss="11.81" rerouteNo="0" devices="tripinfo_91" vType="DEFAULT_VEHTYPE" speedFactor="0.82" vaporized=""/>
    <tripinfo id="82" depart="368.00" departLane="bottom1B0_0" departPos="5.10" departSpeed="0.00" departDelay="0.00" arrival="494.00" arrivalLane="A1left1_0" arrivalPos="286.40" arrivalSpeed="12.18" duration="126.00" routeLength="1195.18" waitingTime="18.00" waitingCount="2" stopTime="0.00" timeLoss="34.24" rerouteNo="0" devices="tripinfo_82" vType="DEFAULT_VEHTYPE" speedFactor="0.94" vaporized=""/>
    <tripinfo id="64" depart="285.00" departLane="top0A3_0" departPos="5.10" departSpeed="0.00" departDelay="0.00" arrival="495.00" arrivalLane="A1left1_1" arrivalPos="286.40" arrivalSpeed="14.70" duration="210.00" routeLength="1177.07" waitingTime="107.00" waitingCount="3" stopTime="0.00" timeLoss="135.08" rerouteNo="0" devices="tripinfo_64" vType="DEFAULT_VEHTYPE" speedFactor="1.14" vaporized=""/>
    <tripinfo id="78" depart="354.00" departLane="bottom3D0_0" departPos="5.10" departSpeed="0.00" departDelay="0.00" arrival="498.00" arrivalLane="D3right3_0" arrivalPos="286.40" arrivalSpeed="13.97" duration="144.00" routeLength="1477.24" waitingTime="15.00" waitingCount="3" stopTime="0.00" timeLoss="39.43" rerouteNo="0" devices="tripinfo_78" vType="DEFAULT_VEHTYPE" speedFactor="1.02" vaporized=""/>
    <tripinfo id="68" depart="298.00" departLane="left2A2_0" departPos="5.10" departSpeed="0.00" departDelay="0.00" arrival="501.00" arrivalLane="C0bottom2_1" arrivalPos="286.40" arrivalSpeed="12.84" duration="203.00" routeLength="1780.11" waitingTime="38.00" waitingCount="4" stopTime="0.00" timeLoss="74.69" rerouteNo="0" devices="tripinfo_68" vType="DEFAULT_VEHTYPE" speedFactor="1.01" vaporized=""/>
    <tripinfo id="47" depart="231.00" departLane="left3A3_0" departPos="5.10" departSpeed="0.00" departDelay="0.00" arrival="503.00" arrivalLane="C0bottom2_0" arrivalPos="286.40" arrivalSpeed="11.78" duration="272.00" routeLength="2080.28" waitingTime="60.00" waitingCount="4" stopTime="0.00" timeLoss="96.04" rerouteNo="0" devices="tripinfo_47" vType="DEFAULT_VEHTYPE" speedFactor="0.86" vaporized=""/>