<?xml version="1.0" encoding="UTF-8"?>

<!-- generated on 12/21/21 13:50:43 by Eclipse SUMO sumo Version 1.7.0
<configuration xmlns:xsi="http://www.w3.org/2001/XMLSchema-instance" xsi:noNamespaceSchemaLocation="http://sumo.dlr.de/xsd/sumoConfiguration.xsd">

    <input>
        <net-file value="C:\Users\longs\Desktop\RESCO-main\environments\grid4x4\grid4x4.net.xml"/>
        <route-files value="C:\Users\longs\Desktop\RESCO-main\environments\grid4x4\grid4x4_5.rou.xml"/>
    </input>

    <output>
        <tripinfo-output value="C:\Users\longs\Desktop\RESCO-main\logs\IDQN-tr1-grid4x4-0-drqlong-delaydiff_pressure0\tripinfo_5.xml"/>
        <tripinfo-output.write-unfinished value="true"/>
    </output>

    <processing>
        <time-to-teleport value="-1"/>
    </processing>

    <report>
        <no-warnings value="true"/>
        <no-step-log value="true"/>
    </report>

    <traci_server>
        <remote-port value="61722"/>
    </traci_server>

    <random_number>
        <random value="true"/>
    </random_number>

</configuration>
-->

<tripinfos xmlns:xsi="http://www.w3.org/2001/XMLSchema-instance" xsi:noNamespaceSchemaLocation="http://sumo.dlr.de/xsd/tripinfo_file.xsd">
    <tripinfo id="6" depart="37.00" departLane="left0A0_0" departPos="5.10" departSpeed="0.00" departDelay="0.00" arrival="88.00" arrivalLane="A0bottom0_0" arrivalPos="286.40" arrivalSpeed="13.54" duration="51.00" routeLength="576.73" waitingTime="1.00" waitingCount="1" stopTime="0.00" timeLoss="9.60" rerouteNo="0" devices="tripinfo_6" vType="DEFAULT_VEHTYPE" speedFactor="1.02" vaporized=""/>
    <tripinfo id="1" depart="24.00" departLane="bottom0A0_0" departPos="5.10" departSpeed="0.00" departDelay="0.00" arrival="134.00" arrivalLane="C0bottom2_0" arrivalPos="286.40" arrivalSpeed="15.25" duration="110.00" routeLength="1161.43" waitingTime="7.00" waitingCount="3" stopTime="0.00" timeLoss="32.50" rerouteNo="0" devices="tripinfo_1" vType="DEFAULT_VEHTYPE" speedFactor="1.11" vaporized=""/>
    <tripinfo id="2" depart="26.00" departLane="right2D2_0" departPos="5.10" departSpeed="0.00" departDelay="0.00" arrival="138.00" arrivalLane="D1right1_0" arrivalPos="286.40" arrivalSpeed="13.90" duration="112.00" routeLength="894.86" waitingTime="35.00" waitingCount="2" stopTime="0.00" timeLoss="49.65" rerouteNo="0" devices="tripinfo_2" vType="DEFAULT_VEHTYPE" speedFactor="1.06" vaporized=""/>
    <tripinfo id="3" depart="29.00" departLane="right2D2_0" departPos="5.10" departSpeed="0.00" departDelay="2.00" arrival="140.00" arrivalLane="D1right1_0" arrivalPos="286.40" arrivalSpeed="13.82" duration="111.00" routeLength="894.86" waitingTime="30.00" waitingCount="2" stopTime="0.00" timeLoss="48.31" rerouteNo="0" devices="tripinfo_3" vType="DEFAULT_VEHTYPE" speedFactor="1.06" vaporized=""/>
    <tripinfo id="8" depart="42.00" departLane="right1D1_0" departPos="5.10" departSpeed="0.00" departDelay="0.00" arrival="143.00" arrivalLane="D0bottom3_0" arrivalPos="286.40" arrivalSpeed="11.69" duration="101.00" routeLength="895.01" waitingTime="8.00" waitingCount="1" stopTime="0.00" timeLoss="23.93" rerouteNo="0" devices="tripinfo_8" vType="DEFAULT_VEHTYPE" speedFactor="0.84" vaporized=""/>
    <tripinfo id="13" depart="73.00" departLane="top3D3_0" departPos="5.10" departSpeed="0.00" departDelay="0.00" arrival="159.00" arrivalLane="C3top2_0" arrivalPos="286.40" arrivalSpeed="11.10" duration="86.00" routeLength="858.56" waitingTime="1.00" waitingCount="1" stopTime="0.00" timeLoss="13.81" rerouteNo="0" devices="tripinfo_13" vType="DEFAULT_VEHTYPE" speedFactor="0.87" vaporized=""/>
    <tripinfo id="10" depart="58.00" departLane="right3D3_0" departPos="5.10" departSpeed="0.00" departDelay="0.00" arrival="180.00" arrivalLane="D2right2_0" arrivalPos="286.40" arrivalSpeed="13.05" duration="122.00" routeLength="894.86" waitingTime="37.00" waitingCount="2" stopTime="0.00" timeLoss="54.86" rerouteNo="0" devices="tripinfo_10" vType="DEFAULT_VEHTYPE" speedFactor="0.98" vaporized=""/>
    <tripinfo id="7" depart="38.00" departLane="right0D0_0" departPos="5.10" departSpeed="0.00" departDelay="0.00" arrival="190.00" arrivalLane="C0bottom2_0" arrivalPos="286.40" arrivalSpeed="12.55" duration="152.00" routeLength="897.72" waitingTime="69.00" waitingCount="2" stopTime="0.00" timeLoss="85.96" rerouteNo="0" devices="tripinfo_7" vType="DEFAULT_VEHTYPE" speedFactor="1.00" vaporized=""/>
    <tripinfo id="23" depart="123.00" departLane="left1A1_0" departPos="5.10" departSpeed="0.00" departDelay="0.00" arrival="202.00" arrivalLane="A0left0_0" arrivalPos="286.40" arrivalSpeed="13.26" duration="79.00" routeLength="858.56" waitingTime="2.00" waitingCount="2" stopTime="0.00" timeLoss="17.41" rerouteNo="0" devices="tripinfo_23" vType="DEFAULT_VEHTYPE" speedFactor="1.03" vaporized=""/>
    <tripinfo id="26" depart="137.00" departLane="top3D3_0" departPos="5.10" departSpeed="0.00" departDelay="0.00" arrival="203.00" arrivalLane="D3right3_0" arrivalPos="286.40" arrivalSpeed="11.78" duration="66.00" routeLength="597.55" waitingTime="7.00" waitingCount="1" stopTime="0.00" timeLoss="16.44" rerouteNo="0" devices="tripinfo_26" vType="DEFAULT_VEHTYPE" speedFactor="0.89" vaporized=""/>
    <tripinfo id="14" depart="74.00" departLane="bottom2C0_0" departPos="5.10" departSpeed="0.00" departDelay="0.00" arrival="206.00" arrivalLane="A0bottom0_0" arrivalPos="286.40" arrivalSpeed="16.58" duration="132.00" routeLength="1197.66" waitingTime="40.00" waitingCount="2" stopTime="0.00" timeLoss="60.39" rerouteNo="0" devices="tripinfo_14" vType="DEFAULT_VEHTYPE" speedFactor="1.23" vaporized=""/>
    <tripinfo id="11" depart="63.00" departLane="left3A3_0" departPos="5.10" departSpeed="0.00" departDelay="0.00" arrival="213.00" arrivalLane="A3left3_0" arrivalPos="286.40" arrivalSpeed="13.55" duration="150.00" routeLength="1748.75" waitingTime="1.00" waitingCount="1" stopTime="0.00" timeLoss="20.80" rerouteNo="0" devices="tripinfo_11" vType="DEFAULT_VEHTYPE" speedFactor="1.00" vaporized=""/>
    <tripinfo id="9" depart="48.00" departLane="right1D1_0" departPos="5.10" departSpeed="0.00" departDelay="0.00" arrival="225.00" arrivalLane="D3top3_0" arrivalPos="286.40" arrivalSpeed="9.62" duration="177.00" routeLength="1179.77" waitingTime="45.00" waitingCount="3" stopTime="0.00" timeLoss="67.59" rerouteNo="0" devices="tripinfo_9" vType="DEFAULT_VEHTYPE" speedFactor="0.78" vaporized=""/>
    <tripinfo id="19" depart="116.00" departLane="bottom2C0_0" departPos="5.10" departSpeed="0.00" departDelay="0.00" arrival="234.00" arrivalLane="D2right2_0" arrivalPos="286.40" arrivalSpeed="14.36" duration="118.00" routeLength="1479.94" waitingTime="1.00" waitingCount="1" stopTime="0.00" timeLoss="15.02" rerouteNo="0" devices="tripinfo_19" vType="DEFAULT_VEHTYPE" speedFactor="1.05" vaporized=""/>
    <tripinfo id="0" depart="1.00" departLane="left0A0_0" departPos="5.10" departSpeed="0.00" departDelay="0.00" arrival="259.00" arrivalLane="A3left3_0" arrivalPos="286.40" arrivalSpeed="13.31" duration="258.00" routeLength="1497.83" waitingTime="126.00" waitingCount="3" stopTime="0.00" timeLoss="151.37" rerouteNo="0" devices="tripinfo_0" vType="DEFAULT_VEHTYPE" speedFactor="1.02" vaporized=""/>
    <tripinfo id="30" depart="148.00" departLane="top1B3_0" departPos="5.10" departSpeed="0.00" departDelay="0.00" arrival="259.00" arrivalLane="C3top2_0" arrivalPos="286.40" arrivalSpeed="12.59" duration="111.00" routeLength="894.86" waitingTime="27.00" waitingCount="1" stopTime="0.00" timeLoss="44.64" rerouteNo="0" devices="tripinfo_30" vType="DEFAULT_VEHTYPE" speedFactor="0.99" vaporized=""/>
    <tripinfo id="48" depart="197.00" departLane="right1D1_0" departPos="5.10" departSpeed="0.00" departDelay="0.00" arrival="273.00" arrivalLane="D2right2_0" arrivalPos="286.40" arrivalSpeed="14.38" duration="76.00" routeLength="858.56" waitingTime="1.00" waitingCount="1" stopTime="0.00" timeLoss="16.46" rerouteNo="0" devices="tripinfo_48" vType="DEFAULT_VEHTYPE" speedFactor="1.06" vaporized=""/>
    <tripinfo id="47" depart="195.00" departLane="top0A3_0" departPos="5.10" departSpeed="0.00" departDelay="0.00" arrival="276.00" arrivalLane="A2left2_0" arrivalPos="286.40" arrivalSpeed="13.12" duration="81.00" routeLength="876.90" waitingTime="2.00" waitingCount="2" stopTime="0.00" timeLoss="18.79" rerouteNo="0" devices="tripinfo_47" vType="DEFAULT_VEHTYPE" speedFactor="1.03" vaporized=""/>
    <tripinfo id="46" depart="191.00" departLane="right3D3_0" departPos="5.10" departSpeed="0.00" departDelay="0.00" arrival="278.00" arrivalLane="C3top2_0" arrivalPos="286.40" arrivalSpeed="15.62" duration="87.00" routeLength="876.90" waitingTime="15.00" waitingCount="1" stopTime="0.00" timeLoss="30.81" rerouteNo="0" devices="tripinfo_46" vType="DEFAULT_VEHTYPE" speedFactor="1.15" vaporized=""/>
    <tripinfo id="4" depart="28.00" departLane="left0A0_0" departPos="5.10" departSpeed="0.00" departDelay="0.00" arrival="287.00" arrivalLane="D2right2_0" arrivalPos="286.40" arrivalSpeed="14.48" duration="259.00" routeLength="2080.05" waitingTime="80.00" waitingCount="5" stopTime="0.00" timeLoss="119.15" rerouteNo="0" devices="tripinfo_4" vType="DEFAULT_VEHTYPE" speedFactor="1.08" vaporized=""/>
    <tripinfo id="44" depart="188.00" departLane="left3A3_0" departPos="5.10" departSpeed="0.00" departDelay="0.00" arrival="288.00" arrivalLane="B3top1_0" arrivalPos="286.40" arrivalSpeed="13.78" duration="100.00" routeLength="897.72" waitingTime="25.00" waitingCount="1" stopTime="0.00" timeLoss="37.02" rerouteNo="0" devices="tripinfo_44" vType="DEFAULT_VEHTYPE" speedFactor="1.03" vaporized=""/>
    <tripinfo id="45" depart="191.00" departLane="top0A3_0" departPos="5.10" departSpeed="0.00" departDelay="0.00" arrival="289.00" arrivalLane="B3top1_1" arrivalPos="286.40" arrivalSpeed="15.41" duration="98.00" routeLength="894.86" waitingTime="22.00" waitingCount="2" stopTime="0.00" timeLoss="38.69" rerouteNo="0" devices="tripinfo_45" vType="DEFAULT_VEHTYPE" speedFactor="1.11" vaporized=""/>
    <tripinfo id="24" depart="131.00" departLane="top1B3_0" departPos="5.10" departSpeed="0.00" departDelay="0.00" arrival="291.00" arrivalLane="D3top3_0" arrivalPos="286.40" arrivalSpeed="12.63" duration="160.00" routeLength="1197.66" waitingTime="46.00" waitingCount="3" stopTime="0.00" timeLoss="66.93" rerouteNo="0" devices="tripinfo_24" vType="DEFAULT_VEHTYPE" speedFactor="0.94" vaporized=""/>
    <tripinfo id="25" depart="132.00" departLane="top0A3_0" departPos="5.10" departSpeed="0.00" departDelay="0.00" arrival="292.00" arrivalLane="C3top2_0" arrivalPos="286.40" arrivalSpeed="11.79" duration="160.00" routeLength="1197.66" waitingTime="39.00" waitingCount="3" stopTime="0.00" timeLoss="62.14" rerouteNo="0" devices="tripinfo_25" vType="DEFAULT_VEHTYPE" speedFactor="0.89" vaporized=""/>
    <tripinfo id="21" depart="117.00" departLane="right2D2_0" departPos="5.10" departSpeed="0.00" departDelay="0.00" arrival="315.00" arrivalLane="A0left0_0" arrivalPos="286.40" arrivalSpeed="16.18" duration="198.00" routeLength="2080.05" waitingTime="49.00" waitingCount="2" stopTime="0.00" timeLoss="73.24" rerouteNo="0" devices="tripinfo_21" vType="DEFAULT_VEHTYPE" speedFactor="1.21" vaporized=""/>
    <tripinfo id="15" depart="76.00" departLane="bottom1B0_0" departPos="5.10" departSpeed="0.00" departDelay="0.00" arrival="338.00" arrivalLane="D3right3_0" arrivalPos="286.40" arrivalSpeed="14.19" duration="262.00" routeLength="2080.28" waitingTime="84.00" waitingCount="5" stopTime="0.00" timeLoss="122.16" rerouteNo="0" devices="tripinfo_15" vType="DEFAULT_VEHTYPE" speedFactor="1.08" vaporized=""/>
    <tripinfo id="17" depart="114.00" departLane="right0D0_0" departPos="5.10" departSpeed="0.00" departDelay="0.00" arrival="338.00" arrivalLane="C3top2_0" arrivalPos="286.40" arrivalSpeed="14.27" duration="224.00" routeLength="1780.11" waitingTime="71.00" waitingCount="3" stopTime="0.00" timeLoss="100.58" rerouteNo="0" devices="tripinfo_17" vType="DEFAULT_VEHTYPE" speedFactor="1.04" vaporized=""/>
    <tripinfo id="27" depart="140.00" departLane="bottom0A0_0" departPos="5.10" departSpeed="0.00" departDelay="0.00" arrival="340.00" arrivalLane="A3top0_0" arrivalPos="286.40" arrivalSpeed="13.20" duration="200.00" routeLength="1495.58" waitingTime="61.00" waitingCount="3" stopTime="0.00" timeLoss="87.84" rerouteNo="0" devices="tripinfo_27" vType="DEFAULT_VEHTYPE" speedFactor="0.96" vaporized=""/>
    <tripinfo id="34" depart="162.00" departLane="left1A1_0" departPos="5.10" departSpeed="0.00" departDelay="0.00" arrival="359.00" arrivalLane="A1left1_0" arrivalPos="286.40" arrivalSpeed="12.83" duration="197.00" routeLength="1748.75" waitingTime="37.00" waitingCount="4" stopTime="0.00" timeLoss="70.71" rerouteNo="0" devices="tripinfo_34" vType="DEFAULT_VEHTYPE" speedFactor="1.01" vaporized=""/>
    <tripinfo id="56" depart="240.00" departLane="bottom2C0_0" departPos="5.10" departSpeed="0.00" departDelay="0.00" arrival="359.00" arrivalLane="D0right0_0" arrivalPos="286.40" arrivalSpeed="13.30" duration="119.00" routeLength="879.60" waitingTime="38.00" waitingCount="2" stopTime="0.00" timeLoss="53.33" rerouteNo="0" devices="tripinfo_56" vType="DEFAULT_VEHTYPE" speedFactor="0.98" vaporized=""/>
    <tripinfo id="41" depart="184.00" departLane="right0D0_0" departPos="5.10" departSpeed="0.00" departDelay="0.00" arrival="361.00" arrivalLane="C3top2_0" arrivalPos="286.40" arrivalSpeed="12.65" duration="177.00" routeLength="1780.11" waitingTime="13.00" waitingCount="3" stopTime="0.00" timeLoss="38.40" rerouteNo="0" devices="tripinfo_41" vType="DEFAULT_VEHTYPE" speedFactor="0.93" vaporized=""/>
    <tripinfo id="22" depart="121.00" departLane="right1D1_0" departPos="5.10" departSpeed="0.00" departDelay="0.00" arrival="367.00" arrivalLane="D3top3_0" arrivalPos="286.40" arrivalSpeed="9.60" duration="246.00" routeLength="1179.77" waitingTime="114.00" waitingCount="1" stopTime="0.00" timeLoss="131.04" rerouteNo="0" devices="tripinfo_22" vType="DEFAULT_VEHTYPE" speedFactor="0.75" vaporized=""/>
    <tripinfo id="37" depart="174.00" departLane="left1A1_0" departPos="5.10" departSpeed="0.00" departDelay="0.00" arrival="369.00" arrivalLane="B3top1_0" arrivalPos="286.40" arrivalSpeed="14.21" duration="195.00" routeLength="1495.35" waitingTime="62.00" waitingCount="3" stopTime="0.00" timeLoss="88.74" rerouteNo="0" devices="tripinfo_37" vType="DEFAULT_VEHTYPE" speedFactor="1.03" vaporized=""/>
    <tripinfo id="31" depart="156.00" departLane="right1D1_0" departPos="5.10" departSpeed="0.00" departDelay="0.00" arrival="370.00" arrivalLane="D1right1_0" arrivalPos="286.40" arrivalSpeed="13.01" duration="214.00" routeLength="1748.75" waitingTime="55.00" waitingCount="5" stopTime="0.00" timeLoss="87.68" rerouteNo="0" devices="tripinfo_31" vType="DEFAULT_VEHTYPE" speedFactor="1.02" vaporized=""/>
    <tripinfo id="12" depart="69.00" departLane="right2D2_0" departPos="5.10" departSpeed="0.00" departDelay="0.00" arrival="371.00" arrivalLane="B0bottom1_0" arrivalPos="286.40" arrivalSpeed="11.93" duration="302.00" routeLength="1795.52" waitingTime="130.00" waitingCount="3" stopTime="0.00" timeLoss="160.61" rerouteNo="0" devices="tripinfo_12" vType="DEFAULT_VEHTYPE" speedFactor="0.92" vaporized=""/>
    <tripinfo id="18" depart="116.00" departLane="bottom3D0_0" departPos="5.10" departSpeed="0.00" departDelay="0.00" arrival="372.00" arrivalLane="B3top1_0" arrivalPos="286.40" arrivalSpeed="13.06" duration="256.00" routeLength="2080.05" waitingTime="53.00" waitingCount="5" stopTime="0.00" timeLoss="96.37" rerouteNo="0" devices="tripinfo_18" vType="DEFAULT_VEHTYPE" speedFactor="0.95" vaporized=""/>
    <tripinfo id="29" depart="147.00" departLane="right2D2_0" departPos="5.10" departSpeed="0.00" departDelay="0.00" arrival="378.00" arrivalLane="A2left2_0" arrivalPos="286.40" arrivalSpeed="14.56" duration="231.00" routeLength="1495.58" waitingTime="113.00" waitingCount="2" stopTime="0.00" timeLoss="131.43" rerouteNo="0" devices="tripinfo_29" vType="DEFAULT_VEHTYPE" speedFactor="1.08" vaporized=""/>
    <tripinfo id="35" depart="167.00" departLane="bottom1B0_0" departPos="5.10" departSpeed="0.00" departDelay="0.00" arrival="381.00" arrivalLane="A1left1_0" arrivalPos="286.40" arrivalSpeed="12.45" duration="214.00" routeLength="1195.18" waitingTime="97.00" waitingCount="2" stopTime="0.00" timeLoss="120.34" rerouteNo="0" devices="tripinfo_35" vType="DEFAULT_VEHTYPE" speedFactor="0.93" vaporized=""/>
    <tripinfo id="58" depart="242.00" departLane="right1D1_0" departPos="5.10" departSpeed="0.00" departDelay="0.00" arrival="392.00" arrivalLane="D3top3_0" arrivalPos="286.40" arrivalSpeed="11.40" duration="150.00" routeLength="1179.77" waitingTime="29.00" waitingCount="2" stopTime="0.00" timeLoss="52.00" rerouteNo="0" devices="tripinfo_58" vType="DEFAULT_VEHTYPE" speedFactor="0.88" vaporized=""/>
    <tripinfo id="39" depart="179.00" departLane="top0A3_0" departPos="5.10" departSpeed="0.00" departDelay="0.00" arrival="398.00" arrivalLane="C0bottom2_0" arrivalPos="286.40" arrivalSpeed="14.85" duration="219.00" routeLength="2080.05" waitingTime="52.00" waitingCount="3" stopTime="0.00" timeLoss="79.34" rerouteNo="0" devices="tripinfo_39" vType="DEFAULT_VEHTYPE" speedFactor="1.08" vaporized=""/>
    <tripinfo id="65" depart="290.00" departLane="right2D2_0" departPos="5.10" departSpeed="0.00" departDelay="0.00" arrival="399.00" arrivalLane="D1right1_0" arrivalPos="286.40" arrivalSpeed="13.51" duration="109.00" routeLength="894.86" waitingTime="25.00" waitingCount="1" stopTime="0.00" timeLoss="44.29" rerouteNo="0" devices="tripinfo_65" vType="DEFAULT_VEHTYPE" speedFactor="1.01" vaporized=""/>
    <tripinfo id="5" depart="34.00" departLane="bottom3D0_0" departPos="5.10" departSpeed="0.00" departDelay="0.00" arrival="401.00" arrivalLane="A3top0_1" arrivalPos="286.40" arrivalSpeed="13.44" duration="367.00" routeLength="2380.22" waitingTime="148.00" waitingCount="6" stopTime="0.00" timeLoss="197.55" rerouteNo="0" devices="tripinfo_5" vType="DEFAULT_VEHTYPE" speedFactor="1.02" vaporized=""/>
    <tripinfo id="54" depart="234.00" departLane="left1A1_0" departPos="5.10" departSpeed="0.00" departDelay="0.00" arrival="403.00" arrivalLane="A3top0_0" arrivalPos="286.40" arrivalSpeed="10.86" duration="169.00" routeLength="1195.18" waitingTime="39.00" waitingCount="3" stopTime="0.00" timeLoss="64.60" rerouteNo="0" devices="tripinfo_54" vType="DEFAULT_VEHTYPE" speedFactor="0.83" vaporized=""/>
    <tripinfo id="32" depart="159.00" departLane="left1A1_0" departPos="5.10" departSpeed="0.00" departDelay="0.00" arrival="404.00" arrivalLane="D2right2_0" arrivalPos="286.40" arrivalSpeed="12.49" duration="245.00" routeLength="1782.59" waitingTime="82.00" waitingCount="3" stopTime="0.00" timeLoss="109.54" rerouteNo="0" devices="tripinfo_32" vType="DEFAULT_VEHTYPE" speedFactor="0.96" vaporized=""/>
    <tripinfo id="38" depart="179.00" departLane="right1D1_0" departPos="5.10" departSpeed="0.00" departDelay="0.00" arrival="405.00" arrivalLane="A3top0_0" arrivalPos="286.40" arrivalSpeed="11.33" duration="226.00" routeLength="2080.28" waitingTime="20.00" waitingCount="3" stopTime="0.00" timeLoss="58.63" rerouteNo="0" devices="tripinfo_38" vType="DEFAULT_VEHTYPE" speedFactor="0.90" vaporized=""/>
    <tripinfo id="28" depart="143.00" departLane="top2C3_0" departPos="5.10" departSpeed="0.00" departDelay="0.00" arrival="413.00" arrivalLane="B0bottom1_0" arrivalPos="286.40" arrivalSpeed="11.37" duration="270.00" routeLength="1782.72" waitingTime="85.00" waitingCount="5" stopTime="0.00" timeLoss="120.36" rerouteNo="0" devices="tripinfo_28" vType="DEFAULT_VEHTYPE" speedFactor="0.87" vaporized=""/>
    <tripinfo id="53" depart="230.00" departLane="left2A2_0" departPos="5.10" departSpeed="0.00" departDelay="0.00" arrival="429.00" arrivalLane="A0bottom0_0" arrivalPos="286.40" arrivalSpeed="8.68" duration="199.00" routeLength="1179.77" waitingTime="56.00" waitingCount="3" stopTime="0.00" timeLoss="77.24" rerouteNo="0" devices="tripinfo_53" vType="DEFAULT_VEHTYPE" speedFactor="0.71" vaporized=""/>
    <tripinfo id="89" depart="383.00" departLane="top0A3_0" departPos="5.10" departSpeed="0.00" departDelay="0.00" arrival="436.00" arrivalLane="A3left3_0" arrivalPos="286.40" arrivalSpeed="11.97" duration="53.00" routeLength="576.73" waitingTime="0.00" waitingCount="0" stopTime="0.00" timeLoss="7.03" rerouteNo="0" devices="tripinfo_89" vType="DEFAULT_VEHTYPE" speedFactor="0.93" vaporized=""/>
    <tripinfo id="20" depart="117.00" departLane="left0A0_0" departPos="5.10" departSpeed="0.00" departDelay="0.00" arrival="438.00" arrivalLane="D1right1_0" arrivalPos="286.40" arrivalSpeed="13.70" duration="321.00" routeLength="1782.59" waitingTime="162.00" waitingCount="5" stopTime="0.00" timeLoss="200.40" rerouteNo="0" devices="tripinfo_20" vType="DEFAULT_VEHTYPE" speedFactor="1.08" vaporized=""/>
    <tripinfo id="55" depart="239.00" departLane="left1A1_0" departPos="5.10" departSpeed="0.00" departDelay="0.00" arrival="444.00" arrivalLane="A1left1_0" arrivalPos="286.40" arrivalSpeed="11.11" duration="205.00" routeLength="1748.75" waitingTime="24.00" waitingCount="2" stopTime="0.00" timeLoss="53.07" rerouteNo="0" devices="tripinfo_55" vType="DEFAULT_VEHTYPE" speedFactor="0.85" vaporized=""/>
    <tripinfo id="76" depart="336.00" departLane="left2A2_0" departPos="5.10" departSpeed="0.00" departDelay="2.00" arrival="445.00" arrivalLane="A0left0_0" arrivalPos="286.40" arrivalSpeed="14.68" duration="109.00" routeLength="1161.43" waitingTime="5.00" waitingCount="3" stopTime="0.00" timeLoss="29.50" rerouteNo="0" devices="tripinfo_76" vType="DEFAULT_VEHTYPE" speedFactor="1.07" vaporized=""/>
    <tripinfo id="64" depart="290.00" departLane="left2A2_0" departPos="5.10" departSpeed="0.00" departDelay="0.00" arrival="449.00" arrivalLane="C3top2_0" arrivalPos="286.40" arrivalSpeed="13.68" duration="159.00" routeLength="1495.35" waitingTime="36.00" waitingCount="2" stopTime="0.00" timeLoss="57.18" rerouteNo="0" devices="tripinfo_64" vType="DEFAULT_VEHTYPE" speedFactor="1.07" vaporized=""/>
    <tripinfo id="77" depart="335.00" departLane="bottom0A0_0" departPos="5.10" departSpeed="0.00" departDelay="0.00" arrival="450.00" arrivalLane="C0bottom2_0" arrivalPos="286.40" arrivalSpeed="11.79" duration="115.00" routeLength="1161.43" waitingTime="2.00" waitingCount="2" stopTime="0.00" timeLoss="18.11" rerouteNo="0" devices="tripinfo_77" vType="DEFAULT_VEHTYPE" speedFactor="0.88" vaporized=""/>
    <tripinfo id="79" depart="351.00" departLane="bottom0A0_0" departPos="5.10" departSpeed="0.00" departDelay="0.00" arrival="450.00" arrivalLane="A1left1_0" arrivalPos="286.40" arrivalSpeed="14.49" duration="99.00" routeLength="897.72" waitingTime="24.00" waitingCount="1" stopTime="0.00" timeLoss="38.09" rerouteNo="0" devices="tripinfo_79" vType="DEFAULT_VEHTYPE" speedFactor="1.08" vaporized=""/>
    <tripinfo id="93" depart="399.00" departLane="right0D0_0" departPos="5.10" departSpeed="0.00" departDelay="0.00" arrival="458.00" arrivalLane="D0bottom3_0" arrivalPos="286.40" arrivalSpeed="14.00" duration="59.00" routeLength="597.55" waitingTime="7.00" waitingCount="1" stopTime="0.00" timeLoss="16.60" rerouteNo="0" devices="tripinfo_93" vType="DEFAULT_VEHTYPE" speedFactor="1.03" vaporized=""/>
    <tripinfo id="66" depart="303.00" departLane="left1A1_0" departPos="5.10" departSpeed="0.00" departDelay="0.00" arrival="460.00" arrivalLane="A2left2_0" arrivalPos="286.40" arrivalSpeed="13.03" duration="157.00" routeLength="894.86" waitingTime="73.00" waitingCount="2" stopTime="0.00" timeLoss="90.60" rerouteNo="0" devices="tripinfo_66" vType="DEFAULT_VEHTYPE" speedFactor="1.00" vaporized=""/>
    <tripinfo id="86" depart="364.00" departLane="bottom3D0_0" departPos="5.10" departSpeed="0.00" departDelay="0.00" arrival="463.00" arrivalLane="D1right1_0" arrivalPos="286.40" arrivalSpeed="13.99" duration="99.00" routeLength="876.90" waitingTime="20.00" waitingCount="1" stopTime="0.00" timeLoss="35.88" rerouteNo="0" devices="tripinfo_86" vType="DEFAULT_VEHTYPE" speedFactor="1.02" vaporized=""/>
    <tripinfo id="60" depart="259.00" departLane="top2C3_0" departPos="5.10" departSpeed="0.00" departDelay="0.00" arrival="469.00" arrivalLane="C3top2_0" arrivalPos="286.40" arrivalSpeed="14.18" duration="210.00" routeLength="1748.75" waitingTime="58.00" waitingCount="3" stopTime="0.00" timeLoss="84.40" rerouteNo="0" devices="tripinfo_60" vType="DEFAULT_VEHTYPE" speedFactor="1.02" vaporized=""/>
    <tripinfo id="51" depart="217.00" departLane="top1B3_0" departPos="5.10" departSpeed="0.00" departDelay="0.00" arrival="470.00" arrivalLane="A0left0_0" arrivalPos="286.40" arrivalSpeed="11.86" duration="253.00" routeLength="1780.11" waitingTime="83.00" waitingCount="4" stopTime="0.00" timeLoss="116.72" rerouteNo="0" devices="tripinfo_51" vType="DEFAULT_VEHTYPE" speedFactor="0.95" vaporized=""/>
    <tripinfo id="42" depart="185.00" departLane="bottom3D0_0" departPos="5.10" departSpeed="0.00" departDelay="0.00" arrival="472.00" arrivalLane="A3top0_0" arrivalPos="286.40" arrivalSpeed="11.37" duration="287.00" routeLength="2380.22" waitingTime="55.00" waitingCount="4" stopTime="0.00" timeLoss="96.12" rerouteNo="0" devices="tripinfo_42" vType="DEFAULT_VEHTYPE" speedFactor="0.91" vaporized=""/>
    <tripinfo id="71" depart="322.00" departLane="top3D3_0" departPos="5.10" departSpeed="0.00" departDelay="0.00" arrival="474.00" arrivalLane="A3top0_0" arrivalPos="286.40" arrivalSpeed="13.97" duration="152.00" routeLength="1461.60" waitingTime="31.00" waitingCount="2" stopTime="0.00" timeLoss="49.76" rerouteNo="0" devices="tripinfo_71" vType="DEFAULT_VEHTYPE" speedFactor="1.04" vaporized=""/>
    <tripinfo id="36" depart="169.00" departLane="bottom3D0_0" departPos="5.10" departSpeed="0.00" departDelay="0.00" arrival="489.00" arrivalLane="A0bottom0_0" arrivalPos="286.40" arrivalSpeed="13.22" duration="320.00" routeLength="1497.83" waitingTime="185.00" waitingCount="4" stopTime="0.00" timeLoss="215.00" rerouteNo="0" devices="tripinfo_36" vType="DEFAULT_VEHTYPE" speedFactor="1.04" vaporized=""/>
    <tripinfo id="67" depart="306.00" departLane="right1D1_0" departPos="5.10" departSpeed="0.00" departDelay="0.00" arrival="494.00" arrivalLane="A0left0_0" arrivalPos="286.40" arrivalSpeed="10.91" duration="188.00" routeLength="1782.59" waitingTime="10.00" waitingCount="2" stopTime="0.00" timeLoss="29.12" rerouteNo="0" devices="tripinfo_67" vType="DEFAULT_VEHTYPE" speedFactor="0.82" vaporized=""/>
    <tripinfo id="16" depart="112.00" departLane="top3D3_0" departPos="5.10" departSpeed="0.00" departDelay="0.00" arrival="496.00" arrivalLane="A0left0_0" arrivalPos="286.40" arrivalSpeed="13.15" duration="384.00" routeLength="2380.45" waitingTime="167.00" waitingCount="5" stopTime="0.00" timeLoss="208.73" rerouteNo="0" devices="tripinfo_16" vType="DEFAULT_VEHTYPE" speedFactor="0.98" vaporized=""/>
    <tripinfo id="61" depart="261.00" departLane="left2A2_0" departPos="5.10" departSpeed="0.00" departDelay="0.00" arrival="507.00" arrivalLane="C0bottom2_0" arrivalPos="286.40" arrivalSpeed="14.27" duration="246.00" routeLength="1780.11" waitingTime="104.00" waitingCount="3" stopTime="0.00" timeLoss="130.82" rerouteNo="0" devices="tripinfo_61" vType="DEFAULT_VEHTYPE" speedFactor="1.12" vaporized=""/>
    <tripinfo id="75" depart="333.00" departLane="left2A2_0" departPos="5.10" departSpeed="0.00" departDelay="0.00" arrival="508.00" arrivalLane="B0bottom1_0" arrivalPos="286.40" arrivalSpeed="13.55" duration="175.00" routeLength="1479.94" waitingTime="52.00" waitingCount="2" stopTime="0.00" timeLoss="69.98" rerouteNo="0" devices="tripinfo_75" vType="DEFAULT_VEHTYPE" speedFactor="1.02" vaporized=""/>
    <tripinfo id="43" depart="186.00" departLane="left0A0_0" departPos="5.10" departSpeed="0.00" departDelay="0.00" arrival="521.00" arrivalLane="B3top1_0" arrivalPos="286.40" arrivalSpeed="11.67" duration="335.00" routeLength="1795.52" waitingTime="148.00" waitingCount="6" stopTime="0.00" timeLoss="192.09" rerouteNo="0" devices="tripinfo_43" vType="DEFAULT_VEHTYPE" speedFactor="0.91" vaporized=""/>
    <tripinfo id="111" depart="461.00" departLane="bottom2C0_0" departPos="5.10" departSpeed="0.00" departDelay="0.00" arrival="538.00" arrivalLane="D0bottom3_0" arrivalPos="286.40" arrivalSpeed="12.37" duration="77.00" routeLength="858.56" waitingTime="0.00" waitingCount="0" stopTime="0.00" timeLoss="11.11" rerouteNo="0" devices="tripinfo_111" vType="DEFAULT_VEHTYPE" speedFactor="0.96" vaporized=""/>
    <tripinfo id="102" depart="433.00" departLane="bottom3D0_0" departPos="5.10" departSpeed="0.00" departDelay="0.00" arrival="540.00" arrivalLane="D2right2_0" arrivalPos="286.40" arrivalSpeed="13.40" duration="107.00" routeLength="1177.07" waitingTime="3.00" waitingCount="2" stopTime="0.00" timeLoss="22.64" rerouteNo="0" devices="tripinfo_102" vType="DEFAULT_VEHTYPE" speedFactor="1.02" vaporized=""/>
    <tripinfo id="81" depart="354.00" departLane="right0D0_0" departPos="5.10" departSpeed="0.00" departDelay="0.00" arrival="547.00" arrivalLane="A0left0_0" arrivalPos="286.40" arrivalSpeed="15.06" duration="193.00" routeLength="1495.58" waitingTime="59.00" waitingCount="4" stopTime="0.00" timeLoss="97.80" rerouteNo="0" devices="tripinfo_81" vType="DEFAULT_VEHTYPE" speedFactor="1.14" vaporized=""/>
    <tripinfo id="85" depart="364.00" departLane="top0A3_0" departPos="5.10" departSpeed="0.00" departDelay="0.00" arrival="548.00" arrivalLane="A3top0_0" arrivalPos="286.40" arrivalSpeed="13.47" duration="184.00" routeLength="1745.91" waitingTime="30.00" waitingCount="4" stopTime="0.00" timeLoss="63.66" rerouteNo="0" devices="tripinfo_85" vType="DEFAULT_VEHTYPE" speedFactor="1.06" vaporized=""/>