<?xml version="1.0" encoding="UTF-8"?>

<!-- generated on 12/21/21 14:17:33 by Eclipse SUMO sumo Version 1.7.0
<configuration xmlns:xsi="http://www.w3.org/2001/XMLSchema-instance" xsi:noNamespaceSchemaLocation="http://sumo.dlr.de/xsd/sumoConfiguration.xsd">

    <input>
        <net-file value="C:\Users\longs\Desktop\RESCO-main\environments\grid4x4\grid4x4.net.xml"/>
        <route-files value="C:\Users\longs\Desktop\RESCO-main\environments\grid4x4\grid4x4_29.rou.xml"/>
    </input>

    <output>
        <tripinfo-output value="C:\Users\longs\Desktop\RESCO-main\logs\IDQN-tr1-grid4x4-0-drqlong-delaydiff_pressure0\tripinfo_29.xml"/>
        <tripinfo-output.write-unfinished value="true"/>
    </output>

    <processing>
        <time-to-teleport value="-1"/>
    </processing>

    <report>
        <no-warnings value="true"/>
        <no-step-log value="true"/>
    </report>

    <traci_server>
        <remote-port value="62546"/>
    </traci_server>

    <random_number>
        <random value="true"/>
    </random_number>

</configuration>
-->

<tripinfos xmlns:xsi="http://www.w3.org/2001/XMLSchema-instance" xsi:noNamespaceSchemaLocation="http://sumo.dlr.de/xsd/tripinfo_file.xsd">
    <tripinfo id="5" depart="16.00" departLane="left0A0_0" departPos="5.10" departSpeed="0.00" departDelay="0.00" arrival="119.00" arrivalLane="C0bottom2_0" arrivalPos="286.40" arrivalSpeed="13.25" duration="103.00" routeLength="1177.07" waitingTime="1.00" waitingCount="1" stopTime="0.00" timeLoss="15.55" rerouteNo="0" devices="tripinfo_5" vType="DEFAULT_VEHTYPE" speedFactor="0.98" vaporized=""/>
    <tripinfo id="6" depart="16.00" departLane="top3D3_0" departPos="5.10" departSpeed="0.00" departDelay="0.00" arrival="136.00" arrivalLane="D0bottom3_0" arrivalPos="286.40" arrivalSpeed="14.97" duration="120.00" routeLength="1495.58" waitingTime="6.00" waitingCount="2" stopTime="0.00" timeLoss="26.75" rerouteNo="0" devices="tripinfo_6" vType="DEFAULT_VEHTYPE" speedFactor="1.16" vaporized=""/>
    <tripinfo id="17" depart="90.00" departLane="bottom3D0_0" departPos="5.10" departSpeed="0.00" departDelay="0.00" arrival="152.00" arrivalLane="D0right0_0" arrivalPos="286.40" arrivalSpeed="10.56" duration="62.00" routeLength="576.73" waitingTime="1.00" waitingCount="1" stopTime="0.00" timeLoss="11.29" rerouteNo="0" devices="tripinfo_17" vType="DEFAULT_VEHTYPE" speedFactor="0.83" vaporized=""/>
    <tripinfo id="3" depart="9.00" departLane="right0D0_0" departPos="5.10" departSpeed="0.00" departDelay="0.00" arrival="169.00" arrivalLane="D3top3_0" arrivalPos="286.40" arrivalSpeed="12.89" duration="160.00" routeLength="1479.94" waitingTime="34.00" waitingCount="2" stopTime="0.00" timeLoss="52.74" rerouteNo="0" devices="tripinfo_3" vType="DEFAULT_VEHTYPE" speedFactor="1.00" vaporized=""/>
    <tripinfo id="8" depart="22.00" departLane="bottom0A0_0" departPos="5.10" departSpeed="0.00" departDelay="0.00" arrival="180.00" arrivalLane="A0bottom0_0" arrivalPos="286.40" arrivalSpeed="13.69" duration="158.00" routeLength="1748.75" waitingTime="6.00" waitingCount="3" stopTime="0.00" timeLoss="34.50" rerouteNo="0" devices="tripinfo_8" vType="DEFAULT_VEHTYPE" speedFactor="1.04" vaporized=""/>
    <tripinfo id="2" depart="4.00" departLane="bottom2C0_0" departPos="5.10" departSpeed="0.00" departDelay="0.00" arrival="199.00" arrivalLane="C0bottom2_0" arrivalPos="286.40" arrivalSpeed="13.33" duration="195.00" routeLength="1748.75" waitingTime="36.00" waitingCount="4" stopTime="0.00" timeLoss="69.13" rerouteNo="0" devices="tripinfo_2" vType="DEFAULT_VEHTYPE" speedFactor="1.02" vaporized=""/>
    <tripinfo id="15" depart="82.00" departLane="left1A1_0" departPos="5.10" departSpeed="0.00" departDelay="0.00" arrival="202.00" arrivalLane="A2left2_0" arrivalPos="286.40" arrivalSpeed="11.86" duration="120.00" routeLength="894.86" waitingTime="29.00" waitingCount="2" stopTime="0.00" timeLoss="45.56" rerouteNo="0" devices="tripinfo_15" vType="DEFAULT_VEHTYPE" speedFactor="0.88" vaporized=""/>
    <tripinfo id="22" depart="107.00" departLane="top3D3_0" departPos="5.10" departSpeed="0.00" departDelay="0.00" arrival="202.00" arrivalLane="B3top1_0" arrivalPos="286.40" arrivalSpeed="14.01" duration="95.00" routeLength="1161.43" waitingTime="1.00" waitingCount="1" stopTime="0.00" timeLoss="14.66" rerouteNo="0" devices="tripinfo_22" vType="DEFAULT_VEHTYPE" speedFactor="1.06" vaporized=""/>
    <tripinfo id="9" depart="54.00" departLane="bottom0A0_0" departPos="5.10" departSpeed="0.00" departDelay="0.00" arrival="211.00" arrivalLane="C0bottom2_0" arrivalPos="286.40" arrivalSpeed="11.84" duration="157.00" routeLength="1161.43" waitingTime="44.00" waitingCount="3" stopTime="0.00" timeLoss="64.07" rerouteNo="0" devices="tripinfo_9" vType="DEFAULT_VEHTYPE" speedFactor="0.92" vaporized=""/>
    <tripinfo id="10" depart="59.00" departLane="right3D3_0" departPos="5.10" departSpeed="0.00" departDelay="0.00" arrival="212.00" arrivalLane="D3right3_0" arrivalPos="286.40" arrivalSpeed="14.82" duration="153.00" routeLength="1745.91" waitingTime="10.00" waitingCount="3" stopTime="0.00" timeLoss="39.56" rerouteNo="0" devices="tripinfo_10" vType="DEFAULT_VEHTYPE" speedFactor="1.13" vaporized=""/>
    <tripinfo id="21" depart="95.00" departLane="top0A3_0" departPos="5.10" departSpeed="0.00" departDelay="3.00" arrival="225.00" arrivalLane="A0left0_0" arrivalPos="286.40" arrivalSpeed="12.79" duration="130.00" routeLength="1477.24" waitingTime="1.00" waitingCount="1" stopTime="0.00" timeLoss="21.94" rerouteNo="0" devices="tripinfo_21" vType="DEFAULT_VEHTYPE" speedFactor="0.99" vaporized=""/>
    <tripinfo id="0" depart="1.00" departLane="left1A1_0" departPos="5.10" departSpeed="0.00" departDelay="0.00" arrival="228.00" arrivalLane="D3top3_1" arrivalPos="286.40" arrivalSpeed="15.66" duration="227.00" routeLength="2095.69" waitingTime="48.00" waitingCount="4" stopTime="0.00" timeLoss="93.42" rerouteNo="0" devices="tripinfo_0" vType="DEFAULT_VEHTYPE" speedFactor="1.14" vaporized=""/>
    <tripinfo id="1" depart="4.00" departLane="left1A1_0" departPos="5.10" departSpeed="0.00" departDelay="2.00" arrival="230.00" arrivalLane="D3top3_1" arrivalPos="286.40" arrivalSpeed="14.41" duration="226.00" routeLength="2095.69" waitingTime="41.00" waitingCount="4" stopTime="0.00" timeLoss="90.54" rerouteNo="0" devices="tripinfo_1" vType="DEFAULT_VEHTYPE" speedFactor="1.12" vaporized=""/>
    <tripinfo id="28" depart="137.00" departLane="right2D2_0" departPos="5.10" departSpeed="0.00" departDelay="0.00" arrival="234.00" arrivalLane="D3top3_0" arrivalPos="286.40" arrivalSpeed="10.24" duration="97.00" routeLength="879.60" waitingTime="1.00" waitingCount="1" stopTime="0.00" timeLoss="15.21" rerouteNo="0" devices="tripinfo_28" vType="DEFAULT_VEHTYPE" speedFactor="0.79" vaporized=""/>
    <tripinfo id="7" depart="19.00" departLane="left3A3_0" departPos="5.10" departSpeed="0.00" departDelay="0.00" arrival="248.00" arrivalLane="B0bottom1_0" arrivalPos="286.40" arrivalSpeed="14.46" duration="229.00" routeLength="1780.11" waitingTime="76.00" waitingCount="3" stopTime="0.00" timeLoss="106.09" rerouteNo="0" devices="tripinfo_7" vType="DEFAULT_VEHTYPE" speedFactor="1.05" vaporized=""/>
    <tripinfo id="4" depart="13.00" departLane="left2A2_0" departPos="5.10" departSpeed="0.00" departDelay="0.00" arrival="257.00" arrivalLane="D2right2_0" arrivalPos="286.40" arrivalSpeed="14.45" duration="244.00" routeLength="1495.58" waitingTime="111.00" waitingCount="4" stopTime="0.00" timeLoss="144.56" rerouteNo="0" devices="tripinfo_4" vType="DEFAULT_VEHTYPE" speedFactor="1.09" vaporized=""/>
    <tripinfo id="12" depart="72.00" departLane="bottom2C0_0" departPos="5.10" departSpeed="0.00" departDelay="0.00" arrival="264.00" arrivalLane="D2right2_0" arrivalPos="286.40" arrivalSpeed="11.66" duration="192.00" routeLength="1479.94" waitingTime="40.00" waitingCount="4" stopTime="0.00" timeLoss="70.77" rerouteNo="0" devices="tripinfo_12" vType="DEFAULT_VEHTYPE" speedFactor="0.89" vaporized=""/>
    <tripinfo id="20" depart="92.00" departLane="right1D1_0" departPos="5.10" departSpeed="0.00" departDelay="0.00" arrival="278.00" arrivalLane="A2left2_0" arrivalPos="286.40" arrivalSpeed="15.02" duration="186.00" routeLength="1782.72" waitingTime="41.00" waitingCount="3" stopTime="0.00" timeLoss="66.74" rerouteNo="0" devices="tripinfo_20" vType="DEFAULT_VEHTYPE" speedFactor="1.09" vaporized=""/>
    <tripinfo id="24" depart="112.00" departLane="left0A0_0" departPos="5.10" departSpeed="0.00" departDelay="0.00" arrival="280.00" arrivalLane="A0left0_0" arrivalPos="286.40" arrivalSpeed="13.36" duration="168.00" routeLength="1745.91" waitingTime="14.00" waitingCount="3" stopTime="0.00" timeLoss="43.05" rerouteNo="0" devices="tripinfo_24" vType="DEFAULT_VEHTYPE" speedFactor="1.03" vaporized=""/>
    <tripinfo id="41" depart="197.00" departLane="top0A3_0" departPos="5.10" departSpeed="0.00" departDelay="0.00" arrival="283.00" arrivalLane="A2left2_0" arrivalPos="286.40" arrivalSpeed="15.19" duration="86.00" routeLength="876.90" waitingTime="11.00" waitingCount="2" stopTime="0.00" timeLoss="29.32" rerouteNo="0" devices="tripinfo_41" vType="DEFAULT_VEHTYPE" speedFactor="1.14" vaporized=""/>
    <tripinfo id="18" depart="90.00" departLane="left0A0_0" departPos="5.10" departSpeed="0.00" departDelay="0.00" arrival="291.00" arrivalLane="D0bottom3_0" arrivalPos="286.40" arrivalSpeed="8.87" duration="201.00" routeLength="1477.24" waitingTime="30.00" waitingCount="2" stopTime="0.00" timeLoss="53.22" rerouteNo="0" devices="tripinfo_18" vType="DEFAULT_VEHTYPE" speedFactor="0.73" vaporized=""/>
    <tripinfo id="36" depart="182.00" departLane="top3D3_0" departPos="5.10" departSpeed="0.00" departDelay="0.00" arrival="291.00" arrivalLane="D2right2_0" arrivalPos="286.40" arrivalSpeed="12.19" duration="109.00" routeLength="897.72" waitingTime="21.00" waitingCount="2" stopTime="0.00" timeLoss="39.96" rerouteNo="0" devices="tripinfo_36" vType="DEFAULT_VEHTYPE" speedFactor="0.95" vaporized=""/>
    <tripinfo id="14" depart="81.00" departLane="top0A3_0" departPos="5.10" departSpeed="0.00" departDelay="0.00" arrival="297.00" arrivalLane="D2right2_0" arrivalPos="286.40" arrivalSpeed="14.44" duration="216.00" routeLength="1795.52" waitingTime="66.00" waitingCount="4" stopTime="0.00" timeLoss="99.34" rerouteNo="0" devices="tripinfo_14" vType="DEFAULT_VEHTYPE" speedFactor="1.11" vaporized=""/>
    <tripinfo id="26" depart="125.00" departLane="left3A3_0" departPos="5.10" departSpeed="0.00" departDelay="0.00" arrival="300.00" arrivalLane="D2right2_1" arrivalPos="286.40" arrivalSpeed="15.06" duration="175.00" routeLength="1782.72" waitingTime="22.00" waitingCount="3" stopTime="0.00" timeLoss="61.18" rerouteNo="0" devices="tripinfo_26" vType="DEFAULT_VEHTYPE" speedFactor="1.13" vaporized=""/>
    <tripinfo id="13" depart="81.00" departLane="left3A3_0" departPos="5.10" departSpeed="0.00" departDelay="0.00" arrival="302.00" arrivalLane="D2right2_0" arrivalPos="286.40" arrivalSpeed="12.43" duration="221.00" routeLength="1782.72" waitingTime="50.00" waitingCount="3" stopTime="0.00" timeLoss="87.70" rerouteNo="0" devices="tripinfo_13" vType="DEFAULT_VEHTYPE" speedFactor="0.98" vaporized=""/>
    <tripinfo id="38" depart="186.00" departLane="top2C3_0" departPos="5.10" departSpeed="0.00" departDelay="0.00" arrival="306.00" arrivalLane="A3left3_0" arrivalPos="286.40" arrivalSpeed="16.13" duration="120.00" routeLength="1179.77" waitingTime="33.00" waitingCount="1" stopTime="0.00" timeLoss="48.24" rerouteNo="0" devices="tripinfo_38" vType="DEFAULT_VEHTYPE" speedFactor="1.21" vaporized=""/>
    <tripinfo id="30" depart="148.00" departLane="right3D3_0" departPos="5.10" departSpeed="0.00" departDelay="0.00" arrival="308.00" arrivalLane="A3top0_0" arrivalPos="286.40" arrivalSpeed="13.63" duration="160.00" routeLength="1477.24" waitingTime="21.00" waitingCount="4" stopTime="0.00" timeLoss="52.09" rerouteNo="0" devices="tripinfo_30" vType="DEFAULT_VEHTYPE" speedFactor="0.99" vaporized=""/>
    <tripinfo id="25" depart="112.00" departLane="bottom3D0_0" departPos="5.10" departSpeed="0.00" departDelay="0.00" arrival="316.00" arrivalLane="A1left1_0" arrivalPos="286.40" arrivalSpeed="10.22" duration="204.00" routeLength="1795.52" waitingTime="15.00" waitingCount="1" stopTime="0.00" timeLoss="35.28" rerouteNo="0" devices="tripinfo_25" vType="DEFAULT_VEHTYPE" speedFactor="0.77" vaporized=""/>
    <tripinfo id="27" depart="136.00" departLane="right1D1_0" departPos="5.10" departSpeed="0.00" departDelay="0.00" arrival="320.00" arrivalLane="A0left0_0" arrivalPos="286.40" arrivalSpeed="12.12" duration="184.00" routeLength="1782.59" waitingTime="11.00" waitingCount="3" stopTime="0.00" timeLoss="47.39" rerouteNo="0" devices="tripinfo_27" vType="DEFAULT_VEHTYPE" speedFactor="0.95" vaporized=""/>
    <tripinfo id="32" depart="155.00" departLane="right2D2_0" departPos="5.10" departSpeed="0.00" departDelay="0.00" arrival="345.00" arrivalLane="D0right0_0" arrivalPos="286.40" arrivalSpeed="16.22" duration="190.00" routeLength="1197.66" waitingTime="91.00" waitingCount="3" stopTime="0.00" timeLoss="117.47" rerouteNo="0" devices="tripinfo_32" vType="DEFAULT_VEHTYPE" speedFactor="1.20" vaporized=""/>
    <tripinfo id="33" depart="158.00" departLane="top2C3_0" departPos="5.10" departSpeed="0.00" departDelay="0.00" arrival="347.00" arrivalLane="D0bottom3_0" arrivalPos="286.40" arrivalSpeed="15.32" duration="189.00" routeLength="1782.59" waitingTime="42.00" waitingCount="4" stopTime="0.00" timeLoss="74.59" rerouteNo="0" devices="tripinfo_33" vType="DEFAULT_VEHTYPE" speedFactor="1.14" vaporized=""/>
    <tripinfo id="51" depart="264.00" departLane="top3D3_0" departPos="5.10" departSpeed="0.00" departDelay="0.00" arrival="347.00" arrivalLane="C3top2_0" arrivalPos="286.40" arrivalSpeed="13.28" duration="83.00" routeLength="858.56" waitingTime="1.00" waitingCount="1" stopTime="0.00" timeLoss="16.76" rerouteNo="0" devices="tripinfo_51" vType="DEFAULT_VEHTYPE" speedFactor="0.96" vaporized=""/>
    <tripinfo id="16" depart="86.00" departLane="bottom0A0_0" departPos="5.10" departSpeed="0.00" departDelay="0.00" arrival="350.00" arrivalLane="D3right3_1" arrivalPos="286.40" arrivalSpeed="13.92" duration="264.00" routeLength="2380.45" waitingTime="54.00" waitingCount="6" stopTime="0.00" timeLoss="101.64" rerouteNo="0" devices="tripinfo_16" vType="DEFAULT_VEHTYPE" speedFactor="1.06" vaporized=""/>
    <tripinfo id="19" depart="92.00" departLane="top0A3_0" departPos="5.10" departSpeed="0.00" departDelay="0.00" arrival="351.00" arrivalLane="D3right3_0" arrivalPos="286.40" arrivalSpeed="12.52" duration="259.00" routeLength="1495.35" waitingTime="109.00" waitingCount="4" stopTime="0.00" timeLoss="144.47" rerouteNo="0" devices="tripinfo_19" vType="DEFAULT_VEHTYPE" speedFactor="0.95" vaporized=""/>
    <tripinfo id="23" depart="109.00" departLane="bottom0A0_0" departPos="5.10" departSpeed="0.00" departDelay="0.00" arrival="351.00" arrivalLane="D3top3_0" arrivalPos="286.40" arrivalSpeed="11.38" duration="242.00" routeLength="2382.93" waitingTime="10.00" waitingCount="2" stopTime="0.00" timeLoss="48.98" rerouteNo="0" devices="tripinfo_23" vType="DEFAULT_VEHTYPE" speedFactor="0.90" vaporized=""/>
    <tripinfo id="29" depart="141.00" departLane="right3D3_0" departPos="5.10" departSpeed="0.00" departDelay="0.00" arrival="354.00" arrivalLane="D0right0_0" arrivalPos="286.40" arrivalSpeed="11.63" duration="213.00" routeLength="1497.83" waitingTime="65.00" waitingCount="3" stopTime="0.00" timeLoss="91.52" rerouteNo="0" devices="tripinfo_29" vType="DEFAULT_VEHTYPE" speedFactor="0.90" vaporized=""/>
    <tripinfo id="42" depart="198.00" departLane="bottom3D0_0" departPos="5.10" departSpeed="0.00" departDelay="0.00" arrival="360.00" arrivalLane="D0bottom3_0" arrivalPos="286.40" arrivalSpeed="14.02" duration="162.00" routeLength="1745.91" waitingTime="10.00" waitingCount="3" stopTime="0.00" timeLoss="36.72" rerouteNo="0" devices="tripinfo_42" vType="DEFAULT_VEHTYPE" speedFactor="1.02" vaporized=""/>
    <tripinfo id="54" depart="272.00" departLane="top2C3_0" departPos="5.10" departSpeed="0.00" departDelay="0.00" arrival="373.00" arrivalLane="D3right3_0" arrivalPos="286.40" arrivalSpeed="11.52" duration="101.00" routeLength="895.01" waitingTime="10.00" waitingCount="1" stopTime="0.00" timeLoss="25.29" rerouteNo="0" devices="tripinfo_54" vType="DEFAULT_VEHTYPE" speedFactor="0.86" vaporized=""/>
    <tripinfo id="40" depart="189.00" departLane="left0A0_0" departPos="5.10" departSpeed="0.00" departDelay="0.00" arrival="375.00" arrivalLane="C0bottom2_0" arrivalPos="286.40" arrivalSpeed="13.71" duration="186.00" routeLength="1177.07" waitingTime="85.00" waitingCount="2" stopTime="0.00" timeLoss="104.50" rerouteNo="0" devices="tripinfo_40" vType="DEFAULT_VEHTYPE" speedFactor="1.05" vaporized=""/>
    <tripinfo id="34" depart="163.00" departLane="top1B3_0" departPos="5.10" departSpeed="0.00" departDelay="0.00" arrival="379.00" arrivalLane="D0right0_0" arrivalPos="286.40" arrivalSpeed="13.90" duration="216.00" routeLength="2095.69" waitingTime="46.00" waitingCount="3" stopTime="0.00" timeLoss="72.96" rerouteNo="0" devices="tripinfo_34" vType="DEFAULT_VEHTYPE" speedFactor="1.06" vaporized=""/>
    <tripinfo id="43" depart="207.00" departLane="bottom0A0_0" departPos="5.10" departSpeed="0.00" departDelay="0.00" arrival="387.00" arrivalLane="C0bottom2_0" arrivalPos="286.40" arrivalSpeed="10.89" duration="180.00" routeLength="1161.43" waitingTime="57.00" waitingCount="3" stopTime="0.00" timeLoss="80.15" rerouteNo="0" devices="tripinfo_43" vType="DEFAULT_VEHTYPE" speedFactor="0.85" vaporized=""/>
    <tripinfo id="35" depart="178.00" departLane="bottom0A0_0" departPos="5.10" departSpeed="0.00" departDelay="0.00" arrival="393.00" arrivalLane="A3top0_0" arrivalPos="286.40" arrivalSpeed="12.97" duration="215.00" routeLength="1495.58" waitingTime="79.00" waitingCount="3" stopTime="0.00" timeLoss="105.14" rerouteNo="0" devices="tripinfo_35" vType="DEFAULT_VEHTYPE" speedFactor="0.98" vaporized=""/>
    <tripinfo id="58" depart="276.00" departLane="bottom2C0_0" departPos="5.10" departSpeed="0.00" departDelay="0.00" arrival="396.00" arrivalLane="A0left0_0" arrivalPos="286.40" arrivalSpeed="12.57" duration="120.00" routeLength="1195.18" waitingTime="9.00" waitingCount="1" stopTime="0.00" timeLoss="24.59" rerouteNo="0" devices="tripinfo_58" vType="DEFAULT_VEHTYPE" speedFactor="0.91" vaporized=""/>
    <tripinfo id="44" depart="231.00" departLane="bottom0A0_0" departPos="5.10" departSpeed="0.00" departDelay="0.00" arrival="398.00" arrivalLane="A2left2_0" arrivalPos="286.40" arrivalSpeed="14.39" duration="167.00" routeLength="1197.89" waitingTime="62.00" waitingCount="3" stopTime="0.00" timeLoss="85.66" rerouteNo="0" devices="tripinfo_44" vType="DEFAULT_VEHTYPE" speedFactor="1.07" vaporized=""/>
    <tripinfo id="47" depart="249.00" departLane="top1B3_0" departPos="5.10" departSpeed="0.00" departDelay="0.00" arrival="399.00" arrivalLane="A1left1_0" arrivalPos="286.40" arrivalSpeed="13.19" duration="150.00" routeLength="1479.94" waitingTime="16.00" waitingCount="3" stopTime="0.00" timeLoss="41.52" rerouteNo="0" devices="tripinfo_47" vType="DEFAULT_VEHTYPE" speedFactor="0.99" vaporized=""/>
    <tripinfo id="31" depart="153.00" departLane="top1B3_0" departPos="5.10" departSpeed="0.00" departDelay="0.00" arrival="400.00" arrivalLane="C0bottom2_0" arrivalPos="286.40" arrivalSpeed="12.70" duration="247.00" routeLength="1782.59" waitingTime="74.00" waitingCount="5" stopTime="0.00" timeLoss="115.78" rerouteNo="0" devices="tripinfo_31" vType="DEFAULT_VEHTYPE" speedFactor="0.99" vaporized=""/>
    <tripinfo id="53" depart="265.00" departLane="left3A3_0" departPos="5.10" departSpeed="0.00" departDelay="0.00" arrival="402.00" arrivalLane="A1left1_0" arrivalPos="286.40" arrivalSpeed="13.19" duration="137.00" routeLength="1161.43" waitingTime="28.00" waitingCount="3" stopTime="0.00" timeLoss="53.61" rerouteNo="0" devices="tripinfo_53" vType="DEFAULT_VEHTYPE" speedFactor="1.02" vaporized=""/>
    <tripinfo id="46" depart="249.00" departLane="left3A3_0" departPos="5.10" departSpeed="0.00" departDelay="0.00" arrival="409.00" arrivalLane="A0left0_0" arrivalPos="286.40" arrivalSpeed="16.11" duration="160.00" routeLength="1461.60" waitingTime="46.00" waitingCount="3" stopTime="0.00" timeLoss="70.37" rerouteNo="0" devices="tripinfo_46" vType="DEFAULT_VEHTYPE" speedFactor="1.20" vaporized=""/>
    <tripinfo id="45" depart="240.00" departLane="bottom1B0_0" departPos="5.10" departSpeed="0.00" departDelay="0.00" arrival="418.00" arrivalLane="C3top2_0" arrivalPos="286.40" arrivalSpeed="13.99" duration="178.00" routeLength="1782.72" waitingTime="18.00" waitingCount="4" stopTime="0.00" timeLoss="50.47" rerouteNo="0" devices="tripinfo_45" vType="DEFAULT_VEHTYPE" speedFactor="1.02" vaporized=""/>
    <tripinfo id="66" depart="341.00" departLane="bottom3D0_0" departPos="5.10" departSpeed="0.00" departDelay="0.00" arrival="420.00" arrivalLane="D1right1_0" arrivalPos="286.40" arrivalSpeed="13.69" duration="79.00" routeLength="876.90" waitingTime="5.00" waitingCount="1" stopTime="0.00" timeLoss="19.21" rerouteNo="0" devices="tripinfo_66" vType="DEFAULT_VEHTYPE" speedFactor="1.07" vaporized=""/>
    <tripinfo id="57" depart="275.00" departLane="left3A3_0" departPos="5.10" departSpeed="0.00" departDelay="0.00" arrival="422.00" arrivalLane="A1left1_0" arrivalPos="286.40" arrivalSpeed="11.70" duration="147.00" routeLength="1161.43" waitingTime="22.00" waitingCount="4" stopTime="0.00" timeLoss="52.78" rerouteNo="0" devices="tripinfo_57" vType="DEFAULT_VEHTYPE" speedFactor="0.91" vaporized=""/>
    <tripinfo id="60" depart="283.00" departLane="top0A3_0" departPos="5.10" departSpeed="0.00" departDelay="1.00" arrival="429.00" arrivalLane="A1left1_0" arrivalPos="286.40" arrivalSpeed="11.36" duration="146.00" routeLength="1177.07" waitingTime="17.00" waitingCount="4" stopTime="0.00" timeLoss="51.35" rerouteNo="0" devices="tripinfo_60" vType="DEFAULT_VEHTYPE" speedFactor="0.90" vaporized=""/>
    <tripinfo id="37" depart="185.00" departLane="right1D1_0" departPos="5.10" departSpeed="0.00" departDelay="0.00" arrival="430.00" arrivalLane="A0left0_0" arrivalPos="286.40" arrivalSpeed="12.91" duration="245.00" routeLength="1782.59" waitingTime="85.00" waitingCount="3" stopTime="0.00" timeLoss="110.72" rerouteNo="0" devices="tripinfo_37" vType="DEFAULT_VEHTYPE" speedFactor="0.97" vaporized=""/>
    <tripinfo id="63" depart="303.00" departLane="top0A3_0" departPos="5.10" departSpeed="0.00" departDelay="0.00" arrival="430.00" arrivalLane="A1left1_1" arrivalPos="286.40" arrivalSpeed="12.42" duration="127.00" routeLength="1177.07" waitingTime="12.00" waitingCount="2" stopTime="0.00" timeLoss="40.19" rerouteNo="0" devices="tripinfo_63" vType="DEFAULT_VEHTYPE" speedFactor="0.99" vaporized=""/>
    <tripinfo id="48" depart="254.00" departLane="left3A3_0" departPos="5.10" departSpeed="0.00" departDelay="0.00" arrival="435.00" arrivalLane="D3top3_0" arrivalPos="286.40" arrivalSpeed="12.59" duration="181.00" routeLength="1498.06" waitingTime="43.00" waitingCount="3" stopTime="0.00" timeLoss="67.00" rerouteNo="0" devices="tripinfo_48" vType="DEFAULT_VEHTYPE" speedFactor="0.95" vaporized=""/>
    <tripinfo id="67" depart="345.00" departLane="right0D0_0" departPos="5.10" departSpeed="0.00" departDelay="0.00" arrival="437.00" arrivalLane="D1right1_0" arrivalPos="286.40" arrivalSpeed="11.76" duration="92.00" routeLength="858.56" waitingTime="2.00" waitingCount="2" stopTime="0.00" timeLoss="18.81" rerouteNo="0" devices="tripinfo_67" vType="DEFAULT_VEHTYPE" speedFactor="0.86" vaporized=""/>
    <tripinfo id="59" depart="280.00" departLane="top0A3_0" departPos="5.10" departSpeed="0.00" departDelay="0.00" arrival="447.00" arrivalLane="A3top0_0" arrivalPos="286.40" arrivalSpeed="12.44" duration="167.00" routeLength="1745.91" waitingTime="7.00" waitingCount="4" stopTime="0.00" timeLoss="36.08" rerouteNo="0" devices="tripinfo_59" vType="DEFAULT_VEHTYPE" speedFactor="0.98" vaporized=""/>
    <tripinfo id="76" depart="369.00" departLane="left1A1_0" departPos="5.10" departSpeed="0.00" departDelay="1.00" arrival="448.00" arrivalLane="A0left0_0" arrivalPos="286.40" arrivalSpeed="12.39" duration="79.00" routeLength="858.56" waitingTime="0.00" waitingCount="0" stopTime="0.00" timeLoss="13.32" rerouteNo="0" devices="tripinfo_76" vType="DEFAULT_VEHTYPE" speedFactor="0.97" vaporized=""/>
    <tripinfo id="11" depart="62.00" departLane="right3D3_0" departPos="5.10" departSpeed="0.00" departDelay="2.00" arrival="454.00" arrivalLane="A0bottom0_0" arrivalPos="286.40" arrivalSpeed="11.68" duration="392.00" routeLength="2395.86" waitingTime="141.00" waitingCount="6" stopTime="0.00" timeLoss="187.45" rerouteNo="0" devices="tripinfo_11" vType="DEFAULT_VEHTYPE" speedFactor="0.85" vaporized=""/>
    <tripinfo id="78" depart="372.00" departLane="right3D3_0" departPos="5.10" departSpeed="0.00" departDelay="0.00" arrival="462.00" arrivalLane="D2right2_0" arrivalPos="286.40" arrivalSpeed="11.96" duration="90.00" routeLength="894.86" waitingTime="4.00" waitingCount="2" stopTime="0.00" timeLoss="18.56" rerouteNo="0" devices="tripinfo_78" vType="DEFAULT_VEHTYPE" speedFactor="0.93" vaporized=""/>
    <tripinfo id="49" depart="256.00" departLane="left1A1_0" departPos="5.10" departSpeed="0.00" departDelay="0.00" arrival="472.00" arrivalLane="C3top2_0" arrivalPos="286.40" arrivalSpeed="11.98" duration="216.00" routeLength="1795.52" waitingTime="42.00" waitingCount="3" stopTime="0.00" timeLoss="68.87" rerouteNo="0" devices="tripinfo_49" vType="DEFAULT_VEHTYPE" speedFactor="0.89" vaporized=""/>
    <tripinfo id="50" depart="263.00" departLane="right2D2_0" departPos="5.10" departSpeed="0.00" departDelay="0.00" arrival="478.00" arrivalLane="A2left2_0" arrivalPos="286.40" arrivalSpeed="13.40" duration="215.00" routeLength="1495.58" waitingTime="81.00" waitingCount="4" stopTime="0.00" timeLoss="112.47" rerouteNo="0" devices="tripinfo_50" vType="DEFAULT_VEHTYPE" speedFactor="1.05" vaporized=""/>
    <tripinfo id="56" depart="275.00" departLane="right1D1_0" departPos="5.10" departSpeed="0.00" departDelay="1.00" arrival="481.00" arrivalLane="A2left2_0" arrivalPos="286.40" arrivalSpeed="13.08" duration="206.00" routeLength="1782.72" waitingTime="37.00" waitingCount="4" stopTime="0.00" timeLoss="78.20" rerouteNo="0" devices="tripinfo_56" vType="DEFAULT_VEHTYPE" speedFactor="1.02" vaporized=""/>
    <tripinfo id="55" depart="272.00" departLane="right1D1_0" departPos="5.10" departSpeed="0.00" departDelay="0.00" arrival="490.00" arrivalLane="B3top1_0" arrivalPos="286.40" arrivalSpeed="12.19" duration="218.00" routeLength="1780.11" waitingTime="53.00" waitingCount="3" stopTime="0.00" timeLoss="81.05" rerouteNo="0" devices="tripinfo_55" vType="DEFAULT_VEHTYPE" speedFactor="0.94" vaporized=""/>
    <tripinfo id="68" depart="347.00" departLane="bottom1B0_0" departPos="5.10" departSpeed="0.00" departDelay="0.00" arrival="490.00" arrivalLane="B3top1_1" arrivalPos="286.40" arrivalSpeed="13.70" duration="143.00" routeLength="1495.58" waitingTime="15.00" waitingCount="2" stopTime="0.00" timeLoss="39.37" rerouteNo="0" devices="tripinfo_68" vType="DEFAULT_VEHTYPE" speedFactor="1.04" vaporized=""/>
    <tripinfo id="84" depart="391.00" departLane="top2C3_0" departPos="5.10" departSpeed="0.00" departDelay="0.00" arrival="492.00" arrivalLane="A3top0_0" arrivalPos="286.40" arrivalSpeed="14.08" duration="101.00" routeLength="1161.43" waitingTime="2.00" waitingCount="2" stopTime="0.00" timeLoss="21.65" rerouteNo="0" devices="tripinfo_84" vType="DEFAULT_VEHTYPE" speedFactor="1.07" vaporized=""/>
    <tripinfo id="52" depart="266.00" departLane="right2D2_0" departPos="5.10" departSpeed="0.00" departDelay="1.00" arrival="497.00" arrivalLane="A1left1_0" arrivalPos="286.40" arrivalSpeed="14.54" duration="231.00" routeLength="1782.59" waitingTime="72.00" waitingCount="5" stopTime="0.00" timeLoss="114.69" rerouteNo="0" devices="tripinfo_52" vType="DEFAULT_VEHTYPE" speedFactor="1.12" vaporized=""/>
    <tripinfo id="61" depart="301.00" departLane="left3A3_0" departPos="5.10" departSpeed="0.00" departDelay="0.00" arrival="497.00" arrivalLane="D2right2_0" arrivalPos="286.40" arrivalSpeed="14.98" duration="196.00" routeLength="1782.72" waitingTime="49.00" waitingCount="4" stopTime="0.00" timeLoss="80.88" rerouteNo="0" devices="tripinfo_61" vType="DEFAULT_VEHTYPE" speedFactor="1.13" vaporized=""/>
    <tripinfo id="87" depart="399.00" departLane="left0A0_0" departPos="5.10" departSpeed="0.00" departDelay="0.00" arrival="501.00" arrivalLane="B0bottom1_0" arrivalPos="286.40" arrivalSpeed="10.82" duration="102.00" routeLength="876.90" waitingTime="13.00" waitingCount="1" stopTime="0.00" timeLoss="27.99" rerouteNo="0" devices="tripinfo_87" vType="DEFAULT_VEHTYPE" speedFactor="0.87" vaporized=""/>
    <tripinfo id="39" depart="189.00" departLane="top3D3_0" departPos="5.10" departSpeed="0.00" departDelay="0.00" arrival="502.00" arrivalLane="A0left0_0" arrivalPos="286.40" arrivalSpeed="12.33" duration="313.00" routeLength="2380.45" waitingTime="79.00" waitingCount="6" stopTime="0.00" timeLoss="125.25" rerouteNo="0" devices="tripinfo_39" vType="DEFAULT_VEHTYPE" speedFactor="0.92" vaporized=""/>
    <tripinfo id="85" depart="393.00" departLane="bottom3D0_0" departPos="5.10" departSpeed="0.00" departDelay="0.00" arrival="505.00" arrivalLane="D2right2_0" arrivalPos="286.40" arrivalSpeed="14.32" duration="112.00" routeLength="1177.07" waitingTime="12.00" waitingCount="2" stopTime="0.00" timeLoss="33.02" rerouteNo="0" devices="tripinfo_85" vType="DEFAULT_VEHTYPE" speedFactor="1.09" vaporized=""/>