<?xml version="1.0" encoding="UTF-8"?>

<!-- generated on 12/21/21 14:53:58 by Eclipse SUMO sumo Version 1.7.0
<configuration xmlns:xsi="http://www.w3.org/2001/XMLSchema-instance" xsi:noNamespaceSchemaLocation="http://sumo.dlr.de/xsd/sumoConfiguration.xsd">

    <input>
        <net-file value="C:\Users\longs\Desktop\RESCO-main\environments\grid4x4\grid4x4.net.xml"/>
        <route-files value="C:\Users\longs\Desktop\RESCO-main\environments\grid4x4\grid4x4_66.rou.xml"/>
    </input>

    <output>
        <tripinfo-output value="C:\Users\longs\Desktop\RESCO-main\logs\IDQN-tr1-grid4x4-0-drqlong-delaydiff_pressure0\tripinfo_66.xml"/>
        <tripinfo-output.write-unfinished value="true"/>
    </output>

    <processing>
        <time-to-teleport value="-1"/>
    </processing>

    <report>
        <no-warnings value="true"/>
        <no-step-log value="true"/>
    </report>

    <traci_server>
        <remote-port value="64424"/>
    </traci_server>

    <random_number>
        <random value="true"/>
    </random_number>

</configuration>
-->

<tripinfos xmlns:xsi="http://www.w3.org/2001/XMLSchema-instance" xsi:noNamespaceSchemaLocation="http://sumo.dlr.de/xsd/tripinfo_file.xsd">
    <tripinfo id="4" depart="11.00" departLane="right0D0_0" departPos="5.10" departSpeed="0.00" departDelay="0.00" arrival="83.00" arrivalLane="D1right1_0" arrivalPos="286.40" arrivalSpeed="15.99" duration="72.00" routeLength="858.56" waitingTime="1.00" waitingCount="1" stopTime="0.00" timeLoss="16.84" rerouteNo="0" devices="tripinfo_4" vType="DEFAULT_VEHTYPE" speedFactor="1.16" vaporized=""/>
    <tripinfo id="23" depart="92.00" departLane="right3D3_0" departPos="5.10" departSpeed="0.00" departDelay="0.00" arrival="142.00" arrivalLane="D3top3_0" arrivalPos="286.40" arrivalSpeed="13.60" duration="50.00" routeLength="576.73" waitingTime="0.00" waitingCount="0" stopTime="0.00" timeLoss="7.37" rerouteNo="0" devices="tripinfo_23" vType="DEFAULT_VEHTYPE" speedFactor="0.99" vaporized=""/>
    <tripinfo id="5" depart="15.00" departLane="left0A0_0" departPos="5.10" departSpeed="0.00" departDelay="0.00" arrival="145.00" arrivalLane="C0bottom2_0" arrivalPos="286.40" arrivalSpeed="13.79" duration="130.00" routeLength="1177.07" waitingTime="25.00" waitingCount="3" stopTime="0.00" timeLoss="50.93" rerouteNo="0" devices="tripinfo_5" vType="DEFAULT_VEHTYPE" speedFactor="1.08" vaporized=""/>
    <tripinfo id="2" depart="8.00" departLane="bottom1B0_0" departPos="5.10" departSpeed="0.00" departDelay="0.00" arrival="166.00" arrivalLane="A3left3_0" arrivalPos="286.40" arrivalSpeed="15.81" duration="158.00" routeLength="1795.52" waitingTime="21.00" waitingCount="2" stopTime="0.00" timeLoss="50.03" rerouteNo="0" devices="tripinfo_2" vType="DEFAULT_VEHTYPE" speedFactor="1.21" vaporized=""/>
    <tripinfo id="10" depart="33.00" departLane="left3A3_0" departPos="5.10" departSpeed="0.00" departDelay="0.00" arrival="169.00" arrivalLane="A0bottom0_0" arrivalPos="286.40" arrivalSpeed="13.39" duration="136.00" routeLength="1479.94" waitingTime="9.00" waitingCount="2" stopTime="0.00" timeLoss="28.84" rerouteNo="0" devices="tripinfo_10" vType="DEFAULT_VEHTYPE" speedFactor="1.00" vaporized=""/>
    <tripinfo id="20" depart="77.00" departLane="top2C3_0" departPos="5.10" departSpeed="0.00" departDelay="0.00" arrival="170.00" arrivalLane="D3top3_0" arrivalPos="286.40" arrivalSpeed="12.96" duration="93.00" routeLength="894.86" waitingTime="10.00" waitingCount="2" stopTime="0.00" timeLoss="26.23" rerouteNo="0" devices="tripinfo_20" vType="DEFAULT_VEHTYPE" speedFactor="0.98" vaporized=""/>
    <tripinfo id="17" depart="62.00" departLane="bottom0A0_0" departPos="5.10" departSpeed="0.00" departDelay="0.00" arrival="177.00" arrivalLane="C0bottom2_0" arrivalPos="286.40" arrivalSpeed="12.20" duration="115.00" routeLength="1161.43" waitingTime="7.00" waitingCount="1" stopTime="0.00" timeLoss="21.86" rerouteNo="0" devices="tripinfo_17" vType="DEFAULT_VEHTYPE" speedFactor="0.92" vaporized=""/>
    <tripinfo id="19" depart="76.00" departLane="right3D3_0" departPos="5.10" departSpeed="0.00" departDelay="0.00" arrival="177.00" arrivalLane="D2right2_0" arrivalPos="286.40" arrivalSpeed="15.16" duration="101.00" routeLength="894.86" waitingTime="23.00" waitingCount="2" stopTime="0.00" timeLoss="41.13" rerouteNo="0" devices="tripinfo_19" vType="DEFAULT_VEHTYPE" speedFactor="1.09" vaporized=""/>
    <tripinfo id="0" depart="6.00" departLane="right1D1_0" departPos="5.10" departSpeed="0.00" departDelay="0.00" arrival="178.00" arrivalLane="B0bottom1_0" arrivalPos="286.40" arrivalSpeed="13.16" duration="172.00" routeLength="1495.35" waitingTime="41.00" waitingCount="3" stopTime="0.00" timeLoss="67.80" rerouteNo="0" devices="tripinfo_0" vType="DEFAULT_VEHTYPE" speedFactor="1.04" vaporized=""/>
    <tripinfo id="8" depart="28.00" departLane="right3D3_0" departPos="5.10" departSpeed="0.00" departDelay="0.00" arrival="184.00" arrivalLane="A3top0_0" arrivalPos="286.40" arrivalSpeed="11.49" duration="156.00" routeLength="1477.24" waitingTime="13.00" waitingCount="2" stopTime="0.00" timeLoss="33.95" rerouteNo="0" devices="tripinfo_8" vType="DEFAULT_VEHTYPE" speedFactor="0.88" vaporized=""/>
    <tripinfo id="6" depart="23.00" departLane="bottom3D0_0" departPos="5.10" departSpeed="0.00" departDelay="0.00" arrival="198.00" arrivalLane="D0bottom3_0" arrivalPos="286.40" arrivalSpeed="13.44" duration="175.00" routeLength="1745.91" waitingTime="15.00" waitingCount="4" stopTime="0.00" timeLoss="45.75" rerouteNo="0" devices="tripinfo_6" vType="DEFAULT_VEHTYPE" speedFactor="0.99" vaporized=""/>
    <tripinfo id="18" depart="73.00" departLane="right1D1_0" departPos="5.10" departSpeed="0.00" departDelay="0.00" arrival="199.00" arrivalLane="D3top3_0" arrivalPos="286.40" arrivalSpeed="13.32" duration="126.00" routeLength="1179.77" waitingTime="16.00" waitingCount="3" stopTime="0.00" timeLoss="40.29" rerouteNo="0" devices="tripinfo_18" vType="DEFAULT_VEHTYPE" speedFactor="1.00" vaporized=""/>
    <tripinfo id="15" depart="57.00" departLane="bottom3D0_0" departPos="5.10" departSpeed="0.00" departDelay="0.00" arrival="202.00" arrivalLane="D3top3_0" arrivalPos="286.40" arrivalSpeed="12.08" duration="145.00" routeLength="1495.58" waitingTime="9.00" waitingCount="1" stopTime="0.00" timeLoss="30.43" rerouteNo="0" devices="tripinfo_15" vType="DEFAULT_VEHTYPE" speedFactor="0.94" vaporized=""/>
    <tripinfo id="1" depart="6.00" departLane="bottom3D0_0" departPos="5.10" departSpeed="0.00" departDelay="0.00" arrival="204.00" arrivalLane="A1left1_0" arrivalPos="286.40" arrivalSpeed="10.56" duration="198.00" routeLength="1795.52" waitingTime="16.00" waitingCount="2" stopTime="0.00" timeLoss="38.71" rerouteNo="0" devices="tripinfo_1" vType="DEFAULT_VEHTYPE" speedFactor="0.82" vaporized=""/>
    <tripinfo id="9" depart="30.00" departLane="bottom1B0_0" departPos="5.10" departSpeed="0.00" departDelay="0.00" arrival="207.00" arrivalLane="A3left3_0" arrivalPos="286.40" arrivalSpeed="14.35" duration="177.00" routeLength="1795.52" waitingTime="24.00" waitingCount="4" stopTime="0.00" timeLoss="58.85" rerouteNo="0" devices="tripinfo_9" vType="DEFAULT_VEHTYPE" speedFactor="1.10" vaporized=""/>
    <tripinfo id="14" depart="49.00" departLane="right2D2_0" departPos="5.10" departSpeed="0.00" departDelay="0.00" arrival="207.00" arrivalLane="C0bottom2_0" arrivalPos="286.40" arrivalSpeed="15.02" duration="158.00" routeLength="1495.35" waitingTime="32.00" waitingCount="3" stopTime="0.00" timeLoss="58.08" rerouteNo="0" devices="tripinfo_14" vType="DEFAULT_VEHTYPE" speedFactor="1.08" vaporized=""/>
    <tripinfo id="34" depart="147.00" departLane="bottom0A0_0" departPos="5.10" departSpeed="0.00" departDelay="0.00" arrival="212.00" arrivalLane="A0left0_0" arrivalPos="286.40" arrivalSpeed="11.71" duration="65.00" routeLength="597.55" waitingTime="5.00" waitingCount="1" stopTime="0.00" timeLoss="15.87" rerouteNo="0" devices="tripinfo_34" vType="DEFAULT_VEHTYPE" speedFactor="0.89" vaporized=""/>
    <tripinfo id="16" depart="62.00" departLane="top3D3_0" departPos="5.10" departSpeed="0.00" departDelay="0.00" arrival="214.00" arrivalLane="A2left2_0" arrivalPos="286.40" arrivalSpeed="12.95" duration="152.00" routeLength="1780.11" waitingTime="2.00" waitingCount="1" stopTime="0.00" timeLoss="20.36" rerouteNo="0" devices="tripinfo_16" vType="DEFAULT_VEHTYPE" speedFactor="0.98" vaporized=""/>
    <tripinfo id="32" depart="141.00" departLane="right1D1_0" departPos="5.10" departSpeed="0.00" departDelay="0.00" arrival="214.00" arrivalLane="D2right2_0" arrivalPos="286.40" arrivalSpeed="13.77" duration="73.00" routeLength="858.56" waitingTime="1.00" waitingCount="1" stopTime="0.00" timeLoss="13.83" rerouteNo="0" devices="tripinfo_32" vType="DEFAULT_VEHTYPE" speedFactor="1.07" vaporized=""/>
    <tripinfo id="13" depart="47.00" departLane="right1D1_0" departPos="5.10" departSpeed="0.00" departDelay="0.00" arrival="218.00" arrivalLane="B3top1_0" arrivalPos="286.40" arrivalSpeed="14.27" duration="171.00" routeLength="1780.11" waitingTime="22.00" waitingCount="3" stopTime="0.00" timeLoss="51.02" rerouteNo="0" devices="tripinfo_13" vType="DEFAULT_VEHTYPE" speedFactor="1.08" vaporized=""/>
    <tripinfo id="31" depart="140.00" departLane="bottom2C0_0" departPos="5.10" departSpeed="0.00" departDelay="0.00" arrival="220.00" arrivalLane="D0bottom3_0" arrivalPos="286.40" arrivalSpeed="13.60" duration="80.00" routeLength="858.56" waitingTime="2.00" waitingCount="2" stopTime="0.00" timeLoss="15.72" rerouteNo="0" devices="tripinfo_31" vType="DEFAULT_VEHTYPE" speedFactor="0.99" vaporized=""/>
    <tripinfo id="27" depart="133.00" departLane="left2A2_0" departPos="5.10" departSpeed="0.00" departDelay="0.00" arrival="222.00" arrivalLane="A1left1_0" arrivalPos="286.40" arrivalSpeed="10.73" duration="89.00" routeLength="858.56" waitingTime="1.00" waitingCount="1" stopTime="0.00" timeLoss="15.82" rerouteNo="0" devices="tripinfo_27" vType="DEFAULT_VEHTYPE" speedFactor="0.87" vaporized=""/>
    <tripinfo id="7" depart="26.00" departLane="right2D2_0" departPos="5.10" departSpeed="0.00" departDelay="0.00" arrival="224.00" arrivalLane="A3top0_0" arrivalPos="286.40" arrivalSpeed="11.50" duration="198.00" routeLength="1780.11" waitingTime="14.00" waitingCount="2" stopTime="0.00" timeLoss="42.17" rerouteNo="0" devices="tripinfo_7" vType="DEFAULT_VEHTYPE" speedFactor="0.83" vaporized=""/>
    <tripinfo id="28" depart="137.00" departLane="top0A3_0" departPos="5.10" departSpeed="0.00" departDelay="0.00" arrival="229.00" arrivalLane="B3top1_0" arrivalPos="286.40" arrivalSpeed="13.33" duration="92.00" routeLength="894.86" waitingTime="11.00" waitingCount="2" stopTime="0.00" timeLoss="28.20" rerouteNo="0" devices="tripinfo_28" vType="DEFAULT_VEHTYPE" speedFactor="1.03" vaporized=""/>
    <tripinfo id="11" depart="36.00" departLane="right0D0_0" departPos="5.10" departSpeed="0.00" departDelay="0.00" arrival="241.00" arrivalLane="A1left1_0" arrivalPos="286.40" arrivalSpeed="11.58" duration="205.00" routeLength="1782.72" waitingTime="27.00" waitingCount="4" stopTime="0.00" timeLoss="64.20" rerouteNo="0" devices="tripinfo_11" vType="DEFAULT_VEHTYPE" speedFactor="0.92" vaporized=""/>
    <tripinfo id="3" depart="8.00" departLane="right2D2_0" departPos="5.10" departSpeed="0.00" departDelay="0.00" arrival="251.00" arrivalLane="A0left0_0" arrivalPos="286.40" arrivalSpeed="11.50" duration="243.00" routeLength="2080.05" waitingTime="41.00" waitingCount="5" stopTime="0.00" timeLoss="78.61" rerouteNo="0" devices="tripinfo_3" vType="DEFAULT_VEHTYPE" speedFactor="0.92" vaporized=""/>
    <tripinfo id="21" depart="80.00" departLane="top2C3_0" departPos="5.10" departSpeed="0.00" departDelay="2.00" arrival="266.00" arrivalLane="A1left1_0" arrivalPos="286.40" arrivalSpeed="15.08" duration="186.00" routeLength="1780.11" waitingTime="39.00" waitingCount="4" stopTime="0.00" timeLoss="73.78" rerouteNo="0" devices="tripinfo_21" vType="DEFAULT_VEHTYPE" speedFactor="1.15" vaporized=""/>
    <tripinfo id="41" depart="172.00" departLane="right0D0_0" departPos="5.10" departSpeed="0.00" departDelay="0.00" arrival="270.00" arrivalLane="D1right1_0" arrivalPos="286.40" arrivalSpeed="10.04" duration="98.00" routeLength="858.56" waitingTime="1.00" waitingCount="1" stopTime="0.00" timeLoss="13.77" rerouteNo="0" devices="tripinfo_41" vType="DEFAULT_VEHTYPE" speedFactor="0.75" vaporized=""/>
    <tripinfo id="35" depart="152.00" departLane="bottom3D0_0" departPos="5.10" departSpeed="0.00" departDelay="0.00" arrival="272.00" arrivalLane="D2right2_0" arrivalPos="286.40" arrivalSpeed="11.92" duration="120.00" routeLength="1177.07" waitingTime="11.00" waitingCount="1" stopTime="0.00" timeLoss="26.41" rerouteNo="0" devices="tripinfo_35" vType="DEFAULT_VEHTYPE" speedFactor="0.92" vaporized=""/>
    <tripinfo id="22" depart="81.00" departLane="top1B3_0" departPos="5.10" departSpeed="0.00" departDelay="0.00" arrival="288.00" arrivalLane="D1right1_0" arrivalPos="286.40" arrivalSpeed="13.65" duration="207.00" routeLength="1795.52" waitingTime="53.00" waitingCount="4" stopTime="0.00" timeLoss="84.06" rerouteNo="0" devices="tripinfo_22" vType="DEFAULT_VEHTYPE" speedFactor="1.06" vaporized=""/>
    <tripinfo id="37" depart="161.00" departLane="left0A0_0" departPos="5.10" departSpeed="0.00" departDelay="0.00" arrival="297.00" arrivalLane="A2left2_0" arrivalPos="286.40" arrivalSpeed="15.79" duration="136.00" routeLength="1197.66" waitingTime="32.00" waitingCount="3" stopTime="0.00" timeLoss="59.05" rerouteNo="0" devices="tripinfo_37" vType="DEFAULT_VEHTYPE" speedFactor="1.14" vaporized=""/>
    <tripinfo id="49" depart="216.00" departLane="top1B3_0" departPos="5.10" departSpeed="0.00" departDelay="0.00" arrival="299.00" arrivalLane="A3left3_0" arrivalPos="286.40" arrivalSpeed="11.99" duration="83.00" routeLength="879.60" waitingTime="1.00" waitingCount="1" stopTime="0.00" timeLoss="13.87" rerouteNo="0" devices="tripinfo_49" vType="DEFAULT_VEHTYPE" speedFactor="0.93" vaporized=""/>
    <tripinfo id="24" depart="99.00" departLane="left3A3_0" departPos="5.10" departSpeed="0.00" departDelay="0.00" arrival="302.00" arrivalLane="D2right2_0" arrivalPos="286.40" arrivalSpeed="11.50" duration="203.00" routeLength="1782.72" waitingTime="26.00" waitingCount="4" stopTime="0.00" timeLoss="58.98" rerouteNo="0" devices="tripinfo_24" vType="DEFAULT_VEHTYPE" speedFactor="0.90" vaporized=""/>
    <tripinfo id="26" depart="131.00" departLane="left1A1_0" departPos="5.10" departSpeed="0.00" departDelay="0.00" arrival="302.00" arrivalLane="C0bottom2_0" arrivalPos="286.40" arrivalSpeed="12.13" duration="171.00" routeLength="1479.94" waitingTime="25.00" waitingCount="2" stopTime="0.00" timeLoss="49.72" rerouteNo="0" devices="tripinfo_26" vType="DEFAULT_VEHTYPE" speedFactor="0.89" vaporized=""/>
    <tripinfo id="29" depart="138.00" departLane="left2A2_0" departPos="5.10" departSpeed="0.00" departDelay="0.00" arrival="322.00" arrivalLane="C3top2_0" arrivalPos="286.40" arrivalSpeed="11.45" duration="184.00" routeLength="1495.35" waitingTime="29.00" waitingCount="2" stopTime="0.00" timeLoss="54.01" rerouteNo="0" devices="tripinfo_29" vType="DEFAULT_VEHTYPE" speedFactor="0.84" vaporized=""/>
    <tripinfo id="25" depart="109.00" departLane="right3D3_0" departPos="5.10" departSpeed="0.00" departDelay="0.00" arrival="327.00" arrivalLane="B0bottom1_0" arrivalPos="286.40" arrivalSpeed="15.37" duration="218.00" routeLength="2095.69" waitingTime="44.00" waitingCount="4" stopTime="0.00" timeLoss="82.01" rerouteNo="0" devices="tripinfo_25" vType="DEFAULT_VEHTYPE" speedFactor="1.11" vaporized=""/>
    <tripinfo id="30" depart="140.00" departLane="right2D2_0" departPos="5.10" departSpeed="0.00" departDelay="0.00" arrival="327.00" arrivalLane="B0bottom1_1" arrivalPos="286.40" arrivalSpeed="16.72" duration="187.00" routeLength="1795.52" waitingTime="47.00" waitingCount="3" stopTime="0.00" timeLoss="82.31" rerouteNo="0" devices="tripinfo_30" vType="DEFAULT_VEHTYPE" speedFactor="1.24" vaporized=""/>
    <tripinfo id="33" depart="145.00" departLane="left1A1_0" departPos="5.10" departSpeed="0.00" departDelay="0.00" arrival="329.00" arrivalLane="A1left1_0" arrivalPos="286.40" arrivalSpeed="13.04" duration="184.00" routeLength="1748.75" waitingTime="23.00" waitingCount="4" stopTime="0.00" timeLoss="56.78" rerouteNo="0" devices="tripinfo_33" vType="DEFAULT_VEHTYPE" speedFactor="1.01" vaporized=""/>
    <tripinfo id="44" depart="194.00" departLane="top1B3_0" departPos="5.10" departSpeed="0.00" departDelay="0.00" arrival="329.00" arrivalLane="D3top3_0" arrivalPos="286.40" arrivalSpeed="13.98" duration="135.00" routeLength="1197.66" waitingTime="31.00" waitingCount="2" stopTime="0.00" timeLoss="49.34" rerouteNo="0" devices="tripinfo_44" vType="DEFAULT_VEHTYPE" speedFactor="1.03" vaporized=""/>
    <tripinfo id="46" depart="195.00" departLane="right1D1_0" departPos="5.10" departSpeed="0.00" departDelay="0.00" arrival="329.00" arrivalLane="C0bottom2_0" arrivalPos="286.40" arrivalSpeed="13.61" duration="134.00" routeLength="1195.18" waitingTime="23.00" waitingCount="3" stopTime="0.00" timeLoss="49.22" rerouteNo="0" devices="tripinfo_46" vType="DEFAULT_VEHTYPE" speedFactor="1.02" vaporized=""/>
    <tripinfo id="12" depart="39.00" departLane="left3A3_0" departPos="5.10" departSpeed="0.00" departDelay="0.00" arrival="330.00" arrivalLane="D0bottom3_0" arrivalPos="286.40" arrivalSpeed="12.65" duration="291.00" routeLength="2380.45" waitingTime="66.00" waitingCount="6" stopTime="0.00" timeLoss="110.91" rerouteNo="0" devices="tripinfo_12" vType="DEFAULT_VEHTYPE" speedFactor="0.96" vaporized=""/>
    <tripinfo id="36" depart="157.00" departLane="left2A2_0" departPos="5.10" departSpeed="0.00" departDelay="0.00" arrival="340.00" arrivalLane="D1right1_0" arrivalPos="286.40" arrivalSpeed="13.22" duration="183.00" routeLength="1782.72" waitingTime="18.00" waitingCount="2" stopTime="0.00" timeLoss="47.74" rerouteNo="0" devices="tripinfo_36" vType="DEFAULT_VEHTYPE" speedFactor="0.96" vaporized=""/>
    <tripinfo id="48" depart="204.00" departLane="top0A3_0" departPos="5.10" departSpeed="0.00" departDelay="0.00" arrival="341.00" arrivalLane="C3top2_0" arrivalPos="286.40" arrivalSpeed="12.12" duration="137.00" routeLength="1197.66" waitingTime="26.00" waitingCount="2" stopTime="0.00" timeLoss="45.00" rerouteNo="0" devices="tripinfo_48" vType="DEFAULT_VEHTYPE" speedFactor="0.96" vaporized=""/>
    <tripinfo id="50" depart="221.00" departLane="top2C3_0" departPos="5.10" departSpeed="0.00" departDelay="0.00" arrival="341.00" arrivalLane="A3left3_0" arrivalPos="286.40" arrivalSpeed="12.60" duration="120.00" routeLength="1179.77" waitingTime="9.00" waitingCount="2" stopTime="0.00" timeLoss="26.78" rerouteNo="0" devices="tripinfo_50" vType="DEFAULT_VEHTYPE" speedFactor="0.92" vaporized=""/>
    <tripinfo id="47" depart="196.00" departLane="bottom3D0_0" departPos="5.10" departSpeed="0.00" departDelay="0.00" arrival="342.00" arrivalLane="A0bottom0_0" arrivalPos="286.40" arrivalSpeed="12.86" duration="146.00" routeLength="1497.83" waitingTime="19.00" waitingCount="2" stopTime="0.00" timeLoss="38.16" rerouteNo="0" devices="tripinfo_47" vType="DEFAULT_VEHTYPE" speedFactor="1.01" vaporized=""/>
    <tripinfo id="51" depart="221.00" departLane="right0D0_0" departPos="5.10" departSpeed="0.00" departDelay="0.00" arrival="350.00" arrivalLane="D3right3_0" arrivalPos="286.40" arrivalSpeed="12.62" duration="129.00" routeLength="1461.60" waitingTime="2.00" waitingCount="2" stopTime="0.00" timeLoss="21.61" rerouteNo="0" devices="tripinfo_51" vType="DEFAULT_VEHTYPE" speedFactor="0.99" vaporized=""/>
    <tripinfo id="38" depart="161.00" departLane="left2A2_0" departPos="5.10" departSpeed="0.00" departDelay="0.00" arrival="359.00" arrivalLane="D3top3_0" arrivalPos="286.40" arrivalSpeed="13.03" duration="198.00" routeLength="1795.52" waitingTime="37.00" waitingCount="2" stopTime="0.00" timeLoss="68.21" rerouteNo="0" devices="tripinfo_38" vType="DEFAULT_VEHTYPE" speedFactor="1.00" vaporized=""/>
    <tripinfo id="53" depart="229.00" departLane="left3A3_0" departPos="5.10" departSpeed="0.00" departDelay="0.00" arrival="364.00" arrivalLane="A1left1_0" arrivalPos="286.40" arrivalSpeed="12.96" duration="135.00" routeLength="1161.43" waitingTime="30.00" waitingCount="2" stopTime="0.00" timeLoss="48.98" rerouteNo="0" devices="tripinfo_53" vType="DEFAULT_VEHTYPE" speedFactor="0.99" vaporized=""/>
    <tripinfo id="61" depart="268.00" departLane="left2A2_0" departPos="5.10" departSpeed="0.00" departDelay="0.00" arrival="368.00" arrivalLane="A3top0_0" arrivalPos="286.40" arrivalSpeed="13.77" duration="100.00" routeLength="895.01" waitingTime="25.00" waitingCount="1" stopTime="0.00" timeLoss="37.54" rerouteNo="0" devices="tripinfo_61" vType="DEFAULT_VEHTYPE" speedFactor="1.04" vaporized=""/>
    <tripinfo id="42" depart="173.00" departLane="top0A3_0" departPos="5.10" departSpeed="0.00" departDelay="0.00" arrival="370.00" arrivalLane="D1right1_0" arrivalPos="286.40" arrivalSpeed="13.47" duration="197.00" routeLength="2095.69" waitingTime="17.00" waitingCount="2" stopTime="0.00" timeLoss="42.15" rerouteNo="0" devices="tripinfo_42" vType="DEFAULT_VEHTYPE" speedFactor="0.98" vaporized=""/>
    <tripinfo id="40" depart="170.00" departLane="left3A3_0" departPos="5.10" departSpeed="0.00" departDelay="0.00" arrival="371.00" arrivalLane="D0bottom3_0" arrivalPos="286.40" arrivalSpeed="12.88" duration="201.00" routeLength="2380.45" waitingTime="5.00" waitingCount="1" stopTime="0.00" timeLoss="25.72" rerouteNo="0" devices="tripinfo_40" vType="DEFAULT_VEHTYPE" speedFactor="0.99" vaporized=""/>
    <tripinfo id="52" depart="229.00" departLane="bottom1B0_0" departPos="5.10" departSpeed="0.00" departDelay="0.00" arrival="372.00" arrivalLane="D1right1_1" arrivalPos="286.40" arrivalSpeed="13.14" duration="143.00" routeLength="1479.94" waitingTime="12.00" waitingCount="3" stopTime="0.00" timeLoss="38.13" rerouteNo="0" devices="tripinfo_52" vType="DEFAULT_VEHTYPE" speedFactor="1.03" vaporized=""/>
    <tripinfo id="57" depart="241.00" departLane="top1B3_0" departPos="5.10" departSpeed="0.00" departDelay="0.00" arrival="379.00" arrivalLane="A2left2_0" arrivalPos="286.40" arrivalSpeed="13.02" duration="138.00" routeLength="1179.77" waitingTime="33.00" waitingCount="2" stopTime="0.00" timeLoss="52.57" rerouteNo="0" devices="tripinfo_57" vType="DEFAULT_VEHTYPE" speedFactor="1.01" vaporized=""/>
    <tripinfo id="64" depart="295.00" departLane="right2D2_0" departPos="5.10" departSpeed="0.00" departDelay="0.00" arrival="383.00" arrivalLane="D3right3_0" arrivalPos="286.40" arrivalSpeed="12.20" duration="88.00" routeLength="858.56" waitingTime="2.00" waitingCount="2" stopTime="0.00" timeLoss="17.62" rerouteNo="0" devices="tripinfo_64" vType="DEFAULT_VEHTYPE" speedFactor="0.89" vaporized=""/>
    <tripinfo id="55" depart="231.00" departLane="top1B3_0" departPos="5.10" departSpeed="0.00" departDelay="0.00" arrival="387.00" arrivalLane="A1left1_0" arrivalPos="286.40" arrivalSpeed="14.93" duration="156.00" routeLength="1479.94" waitingTime="35.00" waitingCount="3" stopTime="0.00" timeLoss="62.33" rerouteNo="0" devices="tripinfo_55" vType="DEFAULT_VEHTYPE" speedFactor="1.15" vaporized=""/>
    <tripinfo id="39" depart="164.00" departLane="top2C3_0" departPos="5.10" departSpeed="0.00" departDelay="0.00" arrival="397.00" arrivalLane="D0right0_0" arrivalPos="286.40" arrivalSpeed="14.37" duration="233.00" routeLength="1795.52" waitingTime="73.00" waitingCount="5" stopTime="0.00" timeLoss="112.20" rerouteNo="0" devices="tripinfo_39" vType="DEFAULT_VEHTYPE" speedFactor="1.08" vaporized=""/>
    <tripinfo id="65" depart="298.00" departLane="right2D2_0" departPos="5.10" departSpeed="0.00" departDelay="3.00" arrival="400.00" arrivalLane="D1right1_0" arrivalPos="286.40" arrivalSpeed="13.22" duration="102.00" routeLength="894.86" waitingTime="20.00" waitingCount="2" stopTime="0.00" timeLoss="36.12" rerouteNo="0" devices="tripinfo_65" vType="DEFAULT_VEHTYPE" speedFactor="1.00" vaporized=""/>
    <tripinfo id="70" depart="307.00" departLane="top1B3_0" departPos="5.10" departSpeed="0.00" departDelay="2.00" arrival="410.00" arrivalLane="C3top2_0" arrivalPos="286.40" arrivalSpeed="12.26" duration="103.00" routeLength="894.86" waitingTime="19.00" waitingCount="2" stopTime="0.00" timeLoss="35.49" rerouteNo="0" devices="tripinfo_70" vType="DEFAULT_VEHTYPE" speedFactor="0.97" vaporized=""/>
    <tripinfo id="43" depart="181.00" departLane="right0D0_0" departPos="5.10" departSpeed="0.00" departDelay="0.00" arrival="412.00" arrivalLane="B3top1_0" arrivalPos="286.40" arrivalSpeed="11.40" duration="231.00" routeLength="2080.28" waitingTime="28.00" waitingCount="5" stopTime="0.00" timeLoss="65.13" rerouteNo="0" devices="tripinfo_43" vType="DEFAULT_VEHTYPE" speedFactor="0.91" vaporized=""/>
    <tripinfo id="54" depart="230.00" departLane="right1D1_0" departPos="5.10" departSpeed="0.00" departDelay="0.00" arrival="414.00" arrivalLane="A0bottom0_0" arrivalPos="286.40" arrivalSpeed="16.09" duration="184.00" routeLength="1795.52" waitingTime="44.00" waitingCount="4" stopTime="0.00" timeLoss="76.31" rerouteNo="0" devices="tripinfo_54" vType="DEFAULT_VEHTYPE" speedFactor="1.21" vaporized=""/>
    <tripinfo id="75" depart="338.00" departLane="bottom2C0_0" departPos="5.10" departSpeed="0.00" departDelay="2.00" arrival="420.00" arrivalLane="D0bottom3_0" arrivalPos="286.40" arrivalSpeed="11.94" duration="82.00" routeLength="858.56" waitingTime="1.00" waitingCount="1" stopTime="0.00" timeLoss="13.01" rerouteNo="0" devices="tripinfo_75" vType="DEFAULT_VEHTYPE" speedFactor="0.92" vaporized=""/>
    <tripinfo id="72" depart="330.00" departLane="bottom0A0_0" departPos="5.10" departSpeed="0.00" departDelay="0.00" arrival="422.00" arrivalLane="A1left1_0" arrivalPos="286.40" arrivalSpeed="11.40" duration="92.00" routeLength="897.72" waitingTime="8.00" waitingCount="1" stopTime="0.00" timeLoss="19.78" rerouteNo="0" devices="tripinfo_72" vType="DEFAULT_VEHTYPE" speedFactor="0.91" vaporized=""/>
    <tripinfo id="80" depart="358.00" departLane="right2D2_0" departPos="5.10" departSpeed="0.00" departDelay="0.00" arrival="437.00" arrivalLane="D3right3_0" arrivalPos="286.40" arrivalSpeed="13.49" duration="79.00" routeLength="858.56" waitingTime="1.00" waitingCount="1" stopTime="0.00" timeLoss="15.95" rerouteNo="0" devices="tripinfo_80" vType="DEFAULT_VEHTYPE" speedFactor="1.01" vaporized=""/>
    <tripinfo id="58" depart="246.00" departLane="right0D0_0" departPos="5.10" departSpeed="0.00" departDelay="0.00" arrival="440.00" arrivalLane="A0left0_0" arrivalPos="286.40" arrivalSpeed="12.43" duration="194.00" routeLength="1495.58" waitingTime="51.00" waitingCount="4" stopTime="0.00" timeLoss="82.03" rerouteNo="0" devices="tripinfo_58" vType="DEFAULT_VEHTYPE" speedFactor="0.97" vaporized=""/>
    <tripinfo id="68" depart="304.00" departLane="top1B3_0" departPos="5.10" departSpeed="0.00" departDelay="0.00" arrival="445.00" arrivalLane="A2left2_0" arrivalPos="286.40" arrivalSpeed="10.78" duration="141.00" routeLength="1179.77" waitingTime="13.00" waitingCount="3" stopTime="0.00" timeLoss="32.69" rerouteNo="0" devices="tripinfo_68" vType="DEFAULT_VEHTYPE" speedFactor="0.80" vaporized=""/>
    <tripinfo id="45" depart="195.00" departLane="left3A3_0" departPos="5.10" departSpeed="0.00" departDelay="0.00" arrival="457.00" arrivalLane="D0right0_0" arrivalPos="286.40" arrivalSpeed="12.39" duration="262.00" routeLength="2382.93" waitingTime="34.00" waitingCount="6" stopTime="0.00" timeLoss="75.47" rerouteNo="0" devices="tripinfo_45" vType="DEFAULT_VEHTYPE" speedFactor="0.93" vaporized=""/>
    <tripinfo id="66" depart="297.00" departLane="top0A3_0" departPos="5.10" departSpeed="0.00" departDelay="0.00" arrival="458.00" arrivalLane="A0bottom0_0" arrivalPos="286.40" arrivalSpeed="13.02" duration="161.00" routeLength="1495.58" waitingTime="30.00" waitingCount="2" stopTime="0.00" timeLoss="55.27" rerouteNo="0" devices="tripinfo_66" vType="DEFAULT_VEHTYPE" speedFactor="1.02" vaporized=""/>
    <tripinfo id="56" depart="239.00" departLane="left0A0_0" departPos="5.10" departSpeed="0.00" departDelay="0.00" arrival="469.00" arrivalLane="D3top3_0" arrivalPos="286.40" arrivalSpeed="13.49" duration="230.00" routeLength="2395.86" waitingTime="24.00" waitingCount="3" stopTime="0.00" timeLoss="52.81" rerouteNo="0" devices="tripinfo_56" vType="DEFAULT_VEHTYPE" speedFactor="0.98" vaporized=""/>
    <tripinfo id="59" depart="263.00" departLane="right1D1_0" departPos="5.10" departSpeed="0.00" departDelay="0.00" arrival="470.00" arrivalLane="A3top0_0" arrivalPos="286.40" arrivalSpeed="12.33" duration="207.00" routeLength="2080.28" waitingTime="28.00" waitingCount="2" stopTime="0.00" timeLoss="49.89" rerouteNo="0" devices="tripinfo_59" vType="DEFAULT_VEHTYPE" speedFactor="0.96" vaporized=""/>
    <tripinfo id="74" depart="335.00" departLane="left1A1_0" departPos="5.10" departSpeed="0.00" departDelay="0.00" arrival="470.00" arrivalLane="A3top0_1" arrivalPos="286.40" arrivalSpeed="13.86" duration="135.00" routeLength="1195.18" waitingTime="31.00" waitingCount="2" stopTime="0.00" timeLoss="50.53" rerouteNo="0" devices="tripinfo_74" vType="DEFAULT_VEHTYPE" speedFactor="1.03" vaporized=""/>
    <tripinfo id="83" depart="369.00" departLane="right0D0_0" departPos="5.10" departSpeed="0.00" departDelay="0.00" arrival="485.00" arrivalLane="C0bottom2_0" arrivalPos="286.40" arrivalSpeed="10.57" duration="116.00" routeLength="897.72" waitingTime="20.00" waitingCount="2" stopTime="0.00" timeLoss="35.72" rerouteNo="0" devices="tripinfo_83" vType="DEFAULT_VEHTYPE" speedFactor="0.81" vaporized=""/>