<?xml version="1.0" encoding="UTF-8"?>

<!-- generated on 12/10/21 13:45:00 by Eclipse SUMO sumo Version 1.7.0
<configuration xmlns:xsi="http://www.w3.org/2001/XMLSchema-instance" xsi:noNamespaceSchemaLocation="http://sumo.dlr.de/xsd/sumoConfiguration.xsd">

    <input>
        <net-file value="C:\Users\longs\Desktop\RESCO-main\environments\grid4x4\grid4x4.net.xml"/>
        <route-files value="C:\Users\longs\Desktop\RESCO-main\environments\grid4x4\grid4x4_100.rou.xml"/>
    </input>

    <output>
        <tripinfo-output value="C:\Users\longs\Desktop\RESCO-main\logs\MAXPRESSURE-tr1-grid4x4-0-mplight-wait\tripinfo_100.xml"/>
        <tripinfo-output.write-unfinished value="true"/>
    </output>

    <processing>
        <time-to-teleport value="-1"/>
    </processing>

    <report>
        <no-warnings value="true"/>
        <no-step-log value="true"/>
    </report>

    <traci_server>
        <remote-port value="58576"/>
    </traci_server>

    <random_number>
        <random value="true"/>
    </random_number>

</configuration>
-->

<tripinfos xmlns:xsi="http://www.w3.org/2001/XMLSchema-instance" xsi:noNamespaceSchemaLocation="http://sumo.dlr.de/xsd/tripinfo_file.xsd">
    <tripinfo id="1" depart="3.00" departLane="top0A3_0" departPos="5.10" departSpeed="0.00" departDelay="0.00" arrival="132.00" arrivalLane="A0left0_0" arrivalPos="286.40" arrivalSpeed="12.17" duration="129.00" routeLength="1477.24" waitingTime="0.00" waitingCount="0" stopTime="0.00" timeLoss="11.53" rerouteNo="0" devices="tripinfo_1" vType="DEFAULT_VEHTYPE" speedFactor="0.91" vaporized=""/>
    <tripinfo id="9" depart="57.00" departLane="top3D3_0" departPos="5.10" departSpeed="0.00" departDelay="0.00" arrival="135.00" arrivalLane="C3top2_0" arrivalPos="286.40" arrivalSpeed="13.46" duration="78.00" routeLength="858.56" waitingTime="1.00" waitingCount="1" stopTime="0.00" timeLoss="14.53" rerouteNo="0" devices="tripinfo_9" vType="DEFAULT_VEHTYPE" speedFactor="1.00" vaporized=""/>
    <tripinfo id="4" depart="29.00" departLane="bottom2C0_0" departPos="5.10" departSpeed="0.00" departDelay="0.00" arrival="143.00" arrivalLane="B0bottom1_0" arrivalPos="286.40" arrivalSpeed="11.83" duration="114.00" routeLength="894.86" waitingTime="22.00" waitingCount="2" stopTime="0.00" timeLoss="38.72" rerouteNo="0" devices="tripinfo_4" vType="DEFAULT_VEHTYPE" speedFactor="0.87" vaporized=""/>
    <tripinfo id="3" depart="19.00" departLane="bottom1B0_0" departPos="5.10" departSpeed="0.00" departDelay="0.00" arrival="150.00" arrivalLane="D0right0_0" arrivalPos="286.40" arrivalSpeed="13.92" duration="131.00" routeLength="1179.77" waitingTime="24.00" waitingCount="2" stopTime="0.00" timeLoss="46.19" rerouteNo="0" devices="tripinfo_3" vType="DEFAULT_VEHTYPE" speedFactor="1.02" vaporized=""/>
    <tripinfo id="19" depart="117.00" departLane="bottom3D0_0" departPos="5.10" departSpeed="0.00" departDelay="0.00" arrival="169.00" arrivalLane="D0right0_0" arrivalPos="286.40" arrivalSpeed="12.19" duration="52.00" routeLength="576.73" waitingTime="0.00" waitingCount="0" stopTime="0.00" timeLoss="6.29" rerouteNo="0" devices="tripinfo_19" vType="DEFAULT_VEHTYPE" speedFactor="0.94" vaporized=""/>
    <tripinfo id="6" depart="42.00" departLane="left3A3_0" departPos="5.10" departSpeed="0.00" departDelay="0.00" arrival="173.00" arrivalLane="A1left1_0" arrivalPos="286.40" arrivalSpeed="10.35" duration="131.00" routeLength="1161.43" waitingTime="9.00" waitingCount="2" stopTime="0.00" timeLoss="28.68" rerouteNo="0" devices="tripinfo_6" vType="DEFAULT_VEHTYPE" speedFactor="0.84" vaporized=""/>
    <tripinfo id="7" depart="53.00" departLane="bottom0A0_0" departPos="5.10" departSpeed="0.00" departDelay="0.00" arrival="179.00" arrivalLane="A3left3_0" arrivalPos="286.40" arrivalSpeed="13.73" duration="126.00" routeLength="1498.06" waitingTime="6.00" waitingCount="1" stopTime="0.00" timeLoss="19.78" rerouteNo="0" devices="tripinfo_7" vType="DEFAULT_VEHTYPE" speedFactor="1.02" vaporized=""/>
    <tripinfo id="11" depart="72.00" departLane="left1A1_0" departPos="5.10" departSpeed="0.00" departDelay="0.00" arrival="182.00" arrivalLane="A3left3_0" arrivalPos="286.40" arrivalSpeed="13.27" duration="110.00" routeLength="1197.66" waitingTime="13.00" waitingCount="1" stopTime="0.00" timeLoss="26.19" rerouteNo="0" devices="tripinfo_11" vType="DEFAULT_VEHTYPE" speedFactor="1.04" vaporized=""/>
    <tripinfo id="13" depart="83.00" departLane="right1D1_0" departPos="5.10" departSpeed="0.00" departDelay="0.00" arrival="190.00" arrivalLane="D0right0_0" arrivalPos="286.40" arrivalSpeed="12.58" duration="107.00" routeLength="894.86" waitingTime="22.00" waitingCount="2" stopTime="0.00" timeLoss="37.89" rerouteNo="0" devices="tripinfo_13" vType="DEFAULT_VEHTYPE" speedFactor="0.95" vaporized=""/>
    <tripinfo id="12" depart="79.00" departLane="right1D1_0" departPos="5.10" departSpeed="0.00" departDelay="0.00" arrival="194.00" arrivalLane="D3right3_0" arrivalPos="286.40" arrivalSpeed="12.88" duration="115.00" routeLength="1161.43" waitingTime="8.00" waitingCount="2" stopTime="0.00" timeLoss="31.20" rerouteNo="0" devices="tripinfo_12" vType="DEFAULT_VEHTYPE" speedFactor="1.01" vaporized=""/>
    <tripinfo id="16" depart="103.00" departLane="left0A0_0" departPos="5.10" departSpeed="0.00" departDelay="0.00" arrival="196.00" arrivalLane="A1left1_0" arrivalPos="286.40" arrivalSpeed="15.20" duration="93.00" routeLength="894.86" waitingTime="17.00" waitingCount="2" stopTime="0.00" timeLoss="35.20" rerouteNo="0" devices="tripinfo_16" vType="DEFAULT_VEHTYPE" speedFactor="1.13" vaporized=""/>
    <tripinfo id="2" depart="14.00" departLane="bottom2C0_0" departPos="5.10" departSpeed="0.00" departDelay="0.00" arrival="198.00" arrivalLane="D3top3_0" arrivalPos="286.40" arrivalSpeed="11.81" duration="184.00" routeLength="1782.72" waitingTime="16.00" waitingCount="2" stopTime="0.00" timeLoss="36.98" rerouteNo="0" devices="tripinfo_2" vType="DEFAULT_VEHTYPE" speedFactor="0.88" vaporized=""/>
    <tripinfo id="30" depart="149.00" departLane="right3D3_0" departPos="5.10" departSpeed="0.00" departDelay="0.00" arrival="205.00" arrivalLane="D3top3_0" arrivalPos="286.40" arrivalSpeed="12.91" duration="56.00" routeLength="576.73" waitingTime="1.00" waitingCount="1" stopTime="0.00" timeLoss="11.07" rerouteNo="0" devices="tripinfo_30" vType="DEFAULT_VEHTYPE" speedFactor="0.95" vaporized=""/>
    <tripinfo id="0" depart="0.00" departLane="left0A0_0" departPos="5.10" departSpeed="0.00" departDelay="0.00" arrival="206.00" arrivalLane="D3right3_0" arrivalPos="286.40" arrivalSpeed="15.61" duration="206.00" routeLength="2380.22" waitingTime="22.00" waitingCount="4" stopTime="0.00" timeLoss="57.69" rerouteNo="0" devices="tripinfo_0" vType="DEFAULT_VEHTYPE" speedFactor="1.16" vaporized=""/>
    <tripinfo id="10" depart="69.00" departLane="left2A2_0" departPos="5.10" departSpeed="0.00" departDelay="0.00" arrival="208.00" arrivalLane="B0bottom1_0" arrivalPos="286.40" arrivalSpeed="13.60" duration="139.00" routeLength="1479.94" waitingTime="7.00" waitingCount="2" stopTime="0.00" timeLoss="29.36" rerouteNo="0" devices="tripinfo_10" vType="DEFAULT_VEHTYPE" speedFactor="0.98" vaporized=""/>
    <tripinfo id="5" depart="31.00" departLane="right1D1_0" departPos="5.10" departSpeed="0.00" departDelay="0.00" arrival="215.00" arrivalLane="D1right1_0" arrivalPos="286.40" arrivalSpeed="11.76" duration="184.00" routeLength="1748.75" waitingTime="13.00" waitingCount="3" stopTime="0.00" timeLoss="41.11" rerouteNo="0" devices="tripinfo_5" vType="DEFAULT_VEHTYPE" speedFactor="0.90" vaporized=""/>
    <tripinfo id="8" depart="54.00" departLane="right0D0_0" departPos="5.10" departSpeed="0.00" departDelay="0.00" arrival="223.00" arrivalLane="A0left0_0" arrivalPos="286.40" arrivalSpeed="13.53" duration="169.00" routeLength="1495.58" waitingTime="35.00" waitingCount="3" stopTime="0.00" timeLoss="58.78" rerouteNo="0" devices="tripinfo_8" vType="DEFAULT_VEHTYPE" speedFactor="0.98" vaporized=""/>
    <tripinfo id="31" depart="152.00" departLane="left1A1_0" departPos="5.10" departSpeed="0.00" departDelay="0.00" arrival="224.00" arrivalLane="A0bottom0_0" arrivalPos="286.40" arrivalSpeed="15.43" duration="72.00" routeLength="879.60" waitingTime="1.00" waitingCount="1" stopTime="0.00" timeLoss="16.38" rerouteNo="0" devices="tripinfo_31" vType="DEFAULT_VEHTYPE" speedFactor="1.15" vaporized=""/>
    <tripinfo id="37" depart="163.00" departLane="right0D0_0" departPos="5.10" departSpeed="0.00" departDelay="0.00" arrival="229.00" arrivalLane="D0bottom3_0" arrivalPos="286.40" arrivalSpeed="13.84" duration="66.00" routeLength="597.55" waitingTime="13.00" waitingCount="1" stopTime="0.00" timeLoss="24.40" rerouteNo="0" devices="tripinfo_37" vType="DEFAULT_VEHTYPE" speedFactor="1.06" vaporized=""/>
    <tripinfo id="26" depart="137.00" departLane="right1D1_0" departPos="5.10" departSpeed="0.00" departDelay="0.00" arrival="242.00" arrivalLane="D3right3_0" arrivalPos="286.40" arrivalSpeed="13.28" duration="105.00" routeLength="1161.43" waitingTime="4.00" waitingCount="1" stopTime="0.00" timeLoss="19.70" rerouteNo="0" devices="tripinfo_26" vType="DEFAULT_VEHTYPE" speedFactor="1.00" vaporized=""/>
    <tripinfo id="35" depart="159.00" departLane="left0A0_0" departPos="5.10" departSpeed="0.00" departDelay="0.00" arrival="246.00" arrivalLane="B0bottom1_0" arrivalPos="286.40" arrivalSpeed="13.64" duration="87.00" routeLength="876.90" waitingTime="7.00" waitingCount="2" stopTime="0.00" timeLoss="24.84" rerouteNo="0" devices="tripinfo_35" vType="DEFAULT_VEHTYPE" speedFactor="1.03" vaporized=""/>
    <tripinfo id="23" depart="128.00" departLane="right1D1_0" departPos="5.10" departSpeed="0.00" departDelay="0.00" arrival="254.00" arrivalLane="C0bottom2_0" arrivalPos="286.40" arrivalSpeed="12.67" duration="126.00" routeLength="1195.18" waitingTime="17.00" waitingCount="2" stopTime="0.00" timeLoss="35.27" rerouteNo="0" devices="tripinfo_23" vType="DEFAULT_VEHTYPE" speedFactor="0.96" vaporized=""/>
    <tripinfo id="25" depart="129.00" departLane="bottom2C0_0" departPos="5.10" departSpeed="0.00" departDelay="0.00" arrival="258.00" arrivalLane="A0bottom0_0" arrivalPos="286.40" arrivalSpeed="14.30" duration="129.00" routeLength="1197.66" waitingTime="24.00" waitingCount="3" stopTime="0.00" timeLoss="46.39" rerouteNo="0" devices="tripinfo_25" vType="DEFAULT_VEHTYPE" speedFactor="1.06" vaporized=""/>
    <tripinfo id="40" depart="180.00" departLane="bottom1B0_0" departPos="5.10" departSpeed="0.00" departDelay="0.00" arrival="263.00" arrivalLane="C0bottom2_0" arrivalPos="286.40" arrivalSpeed="13.33" duration="83.00" routeLength="858.56" waitingTime="2.00" waitingCount="2" stopTime="0.00" timeLoss="19.44" rerouteNo="0" devices="tripinfo_40" vType="DEFAULT_VEHTYPE" speedFactor="1.00" vaporized=""/>
    <tripinfo id="38" depart="164.00" departLane="top2C3_0" departPos="5.10" departSpeed="0.00" departDelay="0.00" arrival="268.00" arrivalLane="D3right3_0" arrivalPos="286.40" arrivalSpeed="14.11" duration="104.00" routeLength="895.01" waitingTime="23.00" waitingCount="2" stopTime="0.00" timeLoss="42.58" rerouteNo="0" devices="tripinfo_38" vType="DEFAULT_VEHTYPE" speedFactor="1.07" vaporized=""/>
    <tripinfo id="45" depart="197.00" departLane="top1B3_0" departPos="5.10" departSpeed="0.00" departDelay="0.00" arrival="270.00" arrivalLane="A3top0_0" arrivalPos="286.40" arrivalSpeed="15.03" duration="73.00" routeLength="858.56" waitingTime="1.00" waitingCount="1" stopTime="0.00" timeLoss="15.01" rerouteNo="0" devices="tripinfo_45" vType="DEFAULT_VEHTYPE" speedFactor="1.09" vaporized=""/>
    <tripinfo id="18" depart="108.00" departLane="bottom2C0_0" departPos="5.10" departSpeed="0.00" departDelay="0.00" arrival="273.00" arrivalLane="D3right3_0" arrivalPos="286.40" arrivalSpeed="12.20" duration="165.00" routeLength="1780.11" waitingTime="5.00" waitingCount="1" stopTime="0.00" timeLoss="22.87" rerouteNo="0" devices="tripinfo_18" vType="DEFAULT_VEHTYPE" speedFactor="0.91" vaporized=""/>
    <tripinfo id="24" depart="131.00" departLane="right1D1_0" departPos="5.10" departSpeed="0.00" departDelay="2.00" arrival="274.00" arrivalLane="C3top2_0" arrivalPos="286.40" arrivalSpeed="12.37" duration="143.00" routeLength="1479.94" waitingTime="5.00" waitingCount="2" stopTime="0.00" timeLoss="24.71" rerouteNo="0" devices="tripinfo_24" vType="DEFAULT_VEHTYPE" speedFactor="0.91" vaporized=""/>
    <tripinfo id="32" depart="153.00" departLane="right3D3_0" departPos="5.10" departSpeed="0.00" departDelay="0.00" arrival="281.00" arrivalLane="D1right1_0" arrivalPos="286.40" arrivalSpeed="12.50" duration="128.00" routeLength="1197.66" waitingTime="16.00" waitingCount="2" stopTime="0.00" timeLoss="33.02" rerouteNo="0" devices="tripinfo_32" vType="DEFAULT_VEHTYPE" speedFactor="0.92" vaporized=""/>
    <tripinfo id="29" depart="146.00" departLane="top2C3_0" departPos="5.10" departSpeed="0.00" departDelay="2.00" arrival="289.00" arrivalLane="D1right1_0" arrivalPos="286.40" arrivalSpeed="13.26" duration="143.00" routeLength="1495.35" waitingTime="16.00" waitingCount="2" stopTime="0.00" timeLoss="36.44" rerouteNo="0" devices="tripinfo_29" vType="DEFAULT_VEHTYPE" speedFactor="1.02" vaporized=""/>
    <tripinfo id="20" depart="117.00" departLane="top3D3_0" departPos="5.10" departSpeed="0.00" departDelay="0.00" arrival="293.00" arrivalLane="C0bottom2_0" arrivalPos="286.40" arrivalSpeed="12.48" duration="176.00" routeLength="1782.72" waitingTime="14.00" waitingCount="3" stopTime="0.00" timeLoss="41.61" rerouteNo="0" devices="tripinfo_20" vType="DEFAULT_VEHTYPE" speedFactor="0.97" vaporized=""/>
    <tripinfo id="36" depart="163.00" departLane="left3A3_0" departPos="5.10" departSpeed="0.00" departDelay="0.00" arrival="293.00" arrivalLane="A1left1_0" arrivalPos="286.40" arrivalSpeed="10.66" duration="130.00" routeLength="1161.43" waitingTime="10.00" waitingCount="2" stopTime="0.00" timeLoss="27.74" rerouteNo="0" devices="tripinfo_36" vType="DEFAULT_VEHTYPE" speedFactor="0.83" vaporized=""/>
    <tripinfo id="47" depart="213.00" departLane="top1B3_0" departPos="5.10" departSpeed="0.00" departDelay="0.00" arrival="299.00" arrivalLane="A3left3_0" arrivalPos="286.40" arrivalSpeed="13.38" duration="86.00" routeLength="879.60" waitingTime="8.00" waitingCount="1" stopTime="0.00" timeLoss="20.86" rerouteNo="0" devices="tripinfo_47" vType="DEFAULT_VEHTYPE" speedFactor="0.98" vaporized=""/>
    <tripinfo id="48" depart="215.00" departLane="left1A1_0" departPos="5.10" departSpeed="0.00" departDelay="0.00" arrival="301.00" arrivalLane="A0left0_0" arrivalPos="286.40" arrivalSpeed="10.86" duration="86.00" routeLength="858.56" waitingTime="1.00" waitingCount="1" stopTime="0.00" timeLoss="13.70" rerouteNo="0" devices="tripinfo_48" vType="DEFAULT_VEHTYPE" speedFactor="0.87" vaporized=""/>
    <tripinfo id="22" depart="128.00" departLane="left2A2_0" departPos="5.10" departSpeed="0.00" departDelay="0.00" arrival="313.00" arrivalLane="D2right2_0" arrivalPos="286.40" arrivalSpeed="10.71" duration="185.00" routeLength="1495.58" waitingTime="29.00" waitingCount="4" stopTime="0.00" timeLoss="58.50" rerouteNo="0" devices="tripinfo_22" vType="DEFAULT_VEHTYPE" speedFactor="0.86" vaporized=""/>
    <tripinfo id="55" depart="235.00" departLane="left3A3_0" departPos="5.10" departSpeed="0.00" departDelay="0.00" arrival="317.00" arrivalLane="A2left2_0" arrivalPos="286.40" arrivalSpeed="12.75" duration="82.00" routeLength="858.56" waitingTime="1.00" waitingCount="1" stopTime="0.00" timeLoss="13.24" rerouteNo="0" devices="tripinfo_55" vType="DEFAULT_VEHTYPE" speedFactor="0.93" vaporized=""/>
    <tripinfo id="14" depart="85.00" departLane="right0D0_0" departPos="5.10" departSpeed="0.00" departDelay="0.00" arrival="320.00" arrivalLane="A3top0_0" arrivalPos="286.40" arrivalSpeed="13.39" duration="235.00" routeLength="2380.45" waitingTime="45.00" waitingCount="3" stopTime="0.00" timeLoss="71.54" rerouteNo="0" devices="tripinfo_14" vType="DEFAULT_VEHTYPE" speedFactor="1.06" vaporized=""/>
    <tripinfo id="21" depart="123.00" departLane="left1A1_0" departPos="5.10" departSpeed="0.00" departDelay="0.00" arrival="320.00" arrivalLane="D1right1_0" arrivalPos="286.40" arrivalSpeed="12.49" duration="197.00" routeLength="1495.58" waitingTime="58.00" waitingCount="4" stopTime="0.00" timeLoss="86.53" rerouteNo="0" devices="tripinfo_21" vType="DEFAULT_VEHTYPE" speedFactor="0.98" vaporized=""/>
    <tripinfo id="17" depart="107.00" departLane="right3D3_0" departPos="5.10" departSpeed="0.00" departDelay="0.00" arrival="324.00" arrivalLane="A2left2_0" arrivalPos="286.40" arrivalSpeed="10.76" duration="217.00" routeLength="1782.59" waitingTime="26.00" waitingCount="4" stopTime="0.00" timeLoss="56.15" rerouteNo="0" devices="tripinfo_17" vType="DEFAULT_VEHTYPE" speedFactor="0.81" vaporized=""/>
    <tripinfo id="56" depart="241.00" departLane="right3D3_0" departPos="5.10" departSpeed="0.00" departDelay="0.00" arrival="328.00" arrivalLane="D2right2_0" arrivalPos="286.40" arrivalSpeed="14.78" duration="87.00" routeLength="894.86" waitingTime="12.00" waitingCount="1" stopTime="0.00" timeLoss="26.78" rerouteNo="0" devices="tripinfo_56" vType="DEFAULT_VEHTYPE" speedFactor="1.09" vaporized=""/>
    <tripinfo id="28" depart="143.00" departLane="top2C3_0" departPos="5.10" departSpeed="0.00" departDelay="0.00" arrival="330.00" arrivalLane="A0bottom0_0" arrivalPos="286.40" arrivalSpeed="12.89" duration="187.00" routeLength="2082.76" waitingTime="9.00" waitingCount="1" stopTime="0.00" timeLoss="25.74" rerouteNo="0" devices="tripinfo_28" vType="DEFAULT_VEHTYPE" speedFactor="0.94" vaporized=""/>
    <tripinfo id="15" depart="90.00" departLane="right2D2_0" departPos="5.10" departSpeed="0.00" departDelay="0.00" arrival="331.00" arrivalLane="A0left0_0" arrivalPos="286.40" arrivalSpeed="12.75" duration="241.00" routeLength="2080.05" waitingTime="41.00" waitingCount="4" stopTime="0.00" timeLoss="79.34" rerouteNo="0" devices="tripinfo_15" vType="DEFAULT_VEHTYPE" speedFactor="0.94" vaporized=""/>
    <tripinfo id="33" depart="156.00" departLane="right3D3_0" departPos="5.10" departSpeed="0.00" departDelay="3.00" arrival="337.00" arrivalLane="A3top0_0" arrivalPos="286.40" arrivalSpeed="12.70" duration="181.00" routeLength="1477.24" waitingTime="42.00" waitingCount="4" stopTime="0.00" timeLoss="70.57" rerouteNo="0" devices="tripinfo_33" vType="DEFAULT_VEHTYPE" speedFactor="0.97" vaporized=""/>
    <tripinfo id="39" depart="179.00" departLane="left3A3_0" departPos="5.10" departSpeed="0.00" departDelay="0.00" arrival="342.00" arrivalLane="A3left3_0" arrivalPos="286.40" arrivalSpeed="13.47" duration="163.00" routeLength="1748.75" waitingTime="7.00" waitingCount="2" stopTime="0.00" timeLoss="31.25" rerouteNo="0" devices="tripinfo_39" vType="DEFAULT_VEHTYPE" speedFactor="0.98" vaporized=""/>
    <tripinfo id="41" depart="182.00" departLane="bottom1B0_0" departPos="5.10" departSpeed="0.00" departDelay="0.00" arrival="346.00" arrivalLane="D2right2_0" arrivalPos="286.40" arrivalSpeed="15.51" duration="164.00" routeLength="1780.11" waitingTime="21.00" waitingCount="4" stopTime="0.00" timeLoss="54.44" rerouteNo="0" devices="tripinfo_41" vType="DEFAULT_VEHTYPE" speedFactor="1.18" vaporized=""/>
    <tripinfo id="34" depart="155.00" departLane="right1D1_0" departPos="5.10" departSpeed="0.00" departDelay="0.00" arrival="350.00" arrivalLane="A2left2_1" arrivalPos="286.40" arrivalSpeed="14.41" duration="195.00" routeLength="1782.72" waitingTime="29.00" waitingCount="4" stopTime="0.00" timeLoss="71.91" rerouteNo="0" devices="tripinfo_34" vType="DEFAULT_VEHTYPE" speedFactor="1.06" vaporized=""/>
    <tripinfo id="27" depart="141.00" departLane="right1D1_0" departPos="5.10" departSpeed="0.00" departDelay="0.00" arrival="351.00" arrivalLane="A2left2_0" arrivalPos="286.40" arrivalSpeed="11.62" duration="210.00" routeLength="1782.72" waitingTime="40.00" waitingCount="4" stopTime="0.00" timeLoss="69.99" rerouteNo="0" devices="tripinfo_27" vType="DEFAULT_VEHTYPE" speedFactor="0.93" vaporized=""/>
    <tripinfo id="63" depart="273.00" departLane="top3D3_0" departPos="5.10" departSpeed="0.00" departDelay="0.00" arrival="360.00" arrivalLane="C3top2_0" arrivalPos="286.40" arrivalSpeed="11.43" duration="87.00" routeLength="858.56" waitingTime="1.00" waitingCount="1" stopTime="0.00" timeLoss="17.01" rerouteNo="0" devices="tripinfo_63" vType="DEFAULT_VEHTYPE" speedFactor="0.90" vaporized=""/>
    <tripinfo id="49" depart="216.00" departLane="top3D3_0" departPos="5.10" departSpeed="0.00" departDelay="0.00" arrival="363.00" arrivalLane="D1right1_0" arrivalPos="286.40" arrivalSpeed="11.23" duration="147.00" routeLength="1197.89" waitingTime="25.00" waitingCount="3" stopTime="0.00" timeLoss="46.16" rerouteNo="0" devices="tripinfo_49" vType="DEFAULT_VEHTYPE" speedFactor="0.86" vaporized=""/>
    <tripinfo id="53" depart="224.00" departLane="right3D3_0" departPos="5.10" departSpeed="0.00" departDelay="0.00" arrival="364.00" arrivalLane="D1right1_1" arrivalPos="286.40" arrivalSpeed="12.77" duration="140.00" routeLength="1197.66" waitingTime="20.00" waitingCount="3" stopTime="0.00" timeLoss="44.94" rerouteNo="0" devices="tripinfo_53" vType="DEFAULT_VEHTYPE" speedFactor="0.93" vaporized=""/>
    <tripinfo id="42" depart="185.00" departLane="left2A2_0" departPos="5.10" departSpeed="0.00" departDelay="0.00" arrival="370.00" arrivalLane="A2left2_0" arrivalPos="286.40" arrivalSpeed="12.40" duration="185.00" routeLength="1748.75" waitingTime="17.00" waitingCount="5" stopTime="0.00" timeLoss="52.90" rerouteNo="0" devices="tripinfo_42" vType="DEFAULT_VEHTYPE" speedFactor="0.97" vaporized=""/>
    <tripinfo id="57" depart="246.00" departLane="right1D1_0" departPos="5.10" departSpeed="0.00" departDelay="0.00" arrival="370.00" arrivalLane="D3top3_0" arrivalPos="286.40" arrivalSpeed="13.09" duration="124.00" routeLength="1179.77" waitingTime="12.00" waitingCount="3" stopTime="0.00" timeLoss="35.32" rerouteNo="0" devices="tripinfo_57" vType="DEFAULT_VEHTYPE" speedFactor="0.97" vaporized=""/>
    <tripinfo id="43" depart="194.00" departLane="right1D1_0" departPos="5.10" departSpeed="0.00" departDelay="0.00" arrival="382.00" arrivalLane="A1left1_0" arrivalPos="286.40" arrivalSpeed="11.95" duration="188.00" routeLength="1495.58" waitingTime="34.00" waitingCount="4" stopTime="0.00" timeLoss="65.30" rerouteNo="0" devices="tripinfo_43" vType="DEFAULT_VEHTYPE" speedFactor="0.88" vaporized=""/>
    <tripinfo id="51" depart="218.00" departLane="left2A2_0" departPos="5.10" departSpeed="0.00" departDelay="0.00" arrival="382.00" arrivalLane="C0bottom2_0" arrivalPos="286.40" arrivalSpeed="13.39" duration="164.00" routeLength="1780.11" waitingTime="12.00" waitingCount="3" stopTime="0.00" timeLoss="36.17" rerouteNo="0" devices="tripinfo_51" vType="DEFAULT_VEHTYPE" speedFactor="1.01" vaporized=""/>
    <tripinfo id="46" depart="210.00" departLane="bottom1B0_0" departPos="5.10" departSpeed="0.00" departDelay="0.00" arrival="384.00" arrivalLane="A3top0_0" arrivalPos="286.40" arrivalSpeed="13.26" duration="174.00" routeLength="1782.59" waitingTime="12.00" waitingCount="2" stopTime="0.00" timeLoss="38.07" rerouteNo="0" devices="tripinfo_46" vType="DEFAULT_VEHTYPE" speedFactor="0.96" vaporized=""/>
    <tripinfo id="75" depart="319.00" departLane="bottom0A0_0" departPos="5.10" departSpeed="0.00" departDelay="0.00" arrival="397.00" arrivalLane="B0bottom1_0" arrivalPos="286.40" arrivalSpeed="14.50" duration="78.00" routeLength="858.56" waitingTime="2.00" waitingCount="2" stopTime="0.00" timeLoss="19.47" rerouteNo="0" devices="tripinfo_75" vType="DEFAULT_VEHTYPE" speedFactor="1.08" vaporized=""/>
    <tripinfo id="69" depart="300.00" departLane="top2C3_0" departPos="5.10" departSpeed="0.00" departDelay="0.00" arrival="400.00" arrivalLane="D3right3_0" arrivalPos="286.40" arrivalSpeed="12.67" duration="100.00" routeLength="895.01" waitingTime="18.00" waitingCount="2" stopTime="0.00" timeLoss="33.01" rerouteNo="0" devices="tripinfo_69" vType="DEFAULT_VEHTYPE" speedFactor="0.98" vaporized=""/>
    <tripinfo id="44" depart="195.00" departLane="left1A1_0" departPos="5.10" departSpeed="0.00" departDelay="0.00" arrival="401.00" arrivalLane="D2right2_0" arrivalPos="286.40" arrivalSpeed="12.61" duration="206.00" routeLength="1782.59" waitingTime="35.00" waitingCount="4" stopTime="0.00" timeLoss="67.68" rerouteNo="0" devices="tripinfo_44" vType="DEFAULT_VEHTYPE" speedFactor="0.94" vaporized=""/>
    <tripinfo id="68" depart="297.00" departLane="right2D2_0" departPos="5.10" departSpeed="0.00" departDelay="0.00" arrival="409.00" arrivalLane="D0bottom3_0" arrivalPos="286.40" arrivalSpeed="14.01" duration="112.00" routeLength="1195.18" waitingTime="18.00" waitingCount="1" stopTime="0.00" timeLoss="31.67" rerouteNo="0" devices="tripinfo_68" vType="DEFAULT_VEHTYPE" speedFactor="1.08" vaporized=""/>
    <tripinfo id="74" depart="316.00" departLane="left2A2_0" departPos="5.10" departSpeed="0.00" departDelay="0.00" arrival="415.00" arrivalLane="A0bottom0_0" arrivalPos="286.40" arrivalSpeed="13.46" duration="99.00" routeLength="1179.77" waitingTime="1.00" waitingCount="1" stopTime="0.00" timeLoss="12.27" rerouteNo="0" devices="tripinfo_74" vType="DEFAULT_VEHTYPE" speedFactor="0.99" vaporized=""/>
    <tripinfo id="59" depart="252.00" departLane="top0A3_0" departPos="5.10" departSpeed="0.00" departDelay="0.00" arrival="417.00" arrivalLane="D3top3_0" arrivalPos="286.40" arrivalSpeed="15.18" duration="165.00" routeLength="1497.83" waitingTime="34.00" waitingCount="4" stopTime="0.00" timeLoss="68.92" rerouteNo="0" devices="tripinfo_59" vType="DEFAULT_VEHTYPE" speedFactor="1.14" vaporized=""/>
    <tripinfo id="52" depart="219.00" departLane="right1D1_0" departPos="5.10" departSpeed="0.00" departDelay="0.00" arrival="420.00" arrivalLane="B3top1_0" arrivalPos="286.40" arrivalSpeed="12.53" duration="201.00" routeLength="1780.11" waitingTime="38.00" waitingCount="4" stopTime="0.00" timeLoss="66.48" rerouteNo="0" devices="tripinfo_52" vType="DEFAULT_VEHTYPE" speedFactor="0.96" vaporized=""/>
    <tripinfo id="60" depart="253.00" departLane="top3D3_0" departPos="5.10" departSpeed="0.00" departDelay="0.00" arrival="420.00" arrivalLane="D0right0_0" arrivalPos="286.40" arrivalSpeed="12.21" duration="167.00" routeLength="1498.06" waitingTime="30.00" waitingCount="3" stopTime="0.00" timeLoss="54.89" rerouteNo="0" devices="tripinfo_60" vType="DEFAULT_VEHTYPE" speedFactor="0.97" vaporized=""/>
    <tripinfo id="66" depart="286.00" departLane="top0A3_0" departPos="5.10" departSpeed="0.00" departDelay="0.00" arrival="432.00" arrivalLane="A0left0_0" arrivalPos="286.40" arrivalSpeed="11.68" duration="146.00" routeLength="1477.24" waitingTime="8.00" waitingCount="2" stopTime="0.00" timeLoss="27.58" rerouteNo="0" devices="tripinfo_66" vType="DEFAULT_VEHTYPE" speedFactor="0.91" vaporized=""/>
    <tripinfo id="72" depart="307.00" departLane="right0D0_0" departPos="5.10" departSpeed="0.00" departDelay="0.00" arrival="432.00" arrivalLane="C0bottom2_0" arrivalPos="286.40" arrivalSpeed="11.61" duration="125.00" routeLength="897.72" waitingTime="35.00" waitingCount="2" stopTime="0.00" timeLoss="52.39" rerouteNo="0" devices="tripinfo_72" vType="DEFAULT_VEHTYPE" speedFactor="0.90" vaporized=""/>
    <tripinfo id="61" depart="258.00" departLane="right1D1_0" departPos="5.10" departSpeed="0.00" departDelay="0.00" arrival="435.00" arrivalLane="A0bottom0_0" arrivalPos="286.40" arrivalSpeed="16.15" duration="177.00" routeLength="1795.52" waitingTime="35.00" waitingCount="4" stopTime="0.00" timeLoss="67.42" rerouteNo="0" devices="tripinfo_61" vType="DEFAULT_VEHTYPE" speedFactor="1.19" vaporized=""/>
    <tripinfo id="73" depart="308.00" departLane="top3D3_0" departPos="5.10" departSpeed="0.00" departDelay="0.00" arrival="436.00" arrivalLane="D0bottom3_0" arrivalPos="286.40" arrivalSpeed="15.20" duration="128.00" routeLength="1495.58" waitingTime="13.00" waitingCount="2" stopTime="0.00" timeLoss="32.87" rerouteNo="0" devices="tripinfo_73" vType="DEFAULT_VEHTYPE" speedFactor="1.13" vaporized=""/>
    <tripinfo id="58" depart="251.00" departLane="top1B3_0" departPos="5.10" departSpeed="0.00" departDelay="0.00" arrival="437.00" arrivalLane="D1right1_0" arrivalPos="286.40" arrivalSpeed="13.50" duration="186.00" routeLength="1795.52" waitingTime="38.00" waitingCount="3" stopTime="0.00" timeLoss="63.86" rerouteNo="0" devices="tripinfo_58" vType="DEFAULT_VEHTYPE" speedFactor="1.06" vaporized=""/>
    <tripinfo id="54" depart="230.00" departLane="right1D1_0" departPos="5.10" departSpeed="0.00" departDelay="0.00" arrival="441.00" arrivalLane="A2left2_0" arrivalPos="286.40" arrivalSpeed="11.65" duration="211.00" routeLength="1782.72" waitingTime="36.00" waitingCount="5" stopTime="0.00" timeLoss="69.90" rerouteNo="0" devices="tripinfo_54" vType="DEFAULT_VEHTYPE" speedFactor="0.92" vaporized=""/>
    <tripinfo id="71" depart="305.00" departLane="bottom2C0_0" departPos="5.10" departSpeed="0.00" departDelay="2.00" arrival="448.00" arrivalLane="A0left0_0" arrivalPos="286.40" arrivalSpeed="13.57" duration="143.00" routeLength="1195.18" waitingTime="36.00" waitingCount="3" stopTime="0.00" timeLoss="58.19" rerouteNo="0" devices="tripinfo_71" vType="DEFAULT_VEHTYPE" speedFactor="1.02" vaporized=""/>
    <tripinfo id="89" depart="369.00" departLane="bottom1B0_0" departPos="5.10" departSpeed="0.00" departDelay="0.00" arrival="452.00" arrivalLane="C0bottom2_0" arrivalPos="286.40" arrivalSpeed="10.91" duration="83.00" routeLength="858.56" waitingTime="0.00" waitingCount="0" stopTime="0.00" timeLoss="9.78" rerouteNo="0" devices="tripinfo_89" vType="DEFAULT_VEHTYPE" speedFactor="0.87" vaporized=""/>