<?xml version="1.0" encoding="UTF-8"?>

<!-- generated on 12/20/21 10:56:53 by Eclipse SUMO sumo Version 1.7.0
<configuration xmlns:xsi="http://www.w3.org/2001/XMLSchema-instance" xsi:noNamespaceSchemaLocation="http://sumo.dlr.de/xsd/sumoConfiguration.xsd">

    <input>
        <net-file value="C:\Users\longs\Desktop\RESCO-main\environments/ingolstadt21/ingolstadt21.net.xml"/>
        <route-files value="C:\Users\longs\Desktop\RESCO-main\environments/ingolstadt21/ingolstadt21.rou.xml"/>
    </input>

    <output>
        <tripinfo-output value="C:\Users\longs\Desktop\RESCO-main\logs\IDQN-tr1-ingolstadt21-21-drqlong-delaydiff_pressure05\tripinfo_16.xml"/>
        <tripinfo-output.write-unfinished value="true"/>
    </output>

    <time>
        <begin value="57600"/>
        <end value="61200"/>
    </time>

    <processing>
        <time-to-teleport value="-1"/>
    </processing>

    <report>
        <no-warnings value="true"/>
        <no-step-log value="true"/>
    </report>

    <traci_server>
        <remote-port value="54545"/>
    </traci_server>

    <random_number>
        <random value="true"/>
    </random_number>

</configuration>
-->

<tripinfos xmlns:xsi="http://www.w3.org/2001/XMLSchema-instance" xsi:noNamespaceSchemaLocation="http://sumo.dlr.de/xsd/tripinfo_file.xsd">
    <tripinfo id="h15454c2:3" depart="57612.00" departLane="24608844_1" departPos="5.10" departSpeed="0.00" departDelay="0.50" arrival="57666.00" arrivalLane="32978638#0_1" arrivalPos="49.29" arrivalSpeed="16.23" duration="54.00" routeLength="354.79" waitingTime="12.00" waitingCount="1" stopTime="0.00" timeLoss="24.43" rerouteNo="1" devices="tripinfo_h15454c2:3 routing_h15454c2:3" vType="default_016" speedFactor="1.18" vaporized=""/>
    <tripinfo id="carIn60260:1" depart="57606.00" departLane="315358254#0_1" departPos="5.10" departSpeed="0.00" departDelay="0.90" arrival="57686.00" arrivalLane="399835085#1_1" arrivalPos="212.23" arrivalSpeed="6.71" duration="80.00" routeLength="430.98" waitingTime="21.00" waitingCount="1" stopTime="0.00" timeLoss="30.91" rerouteNo="1" devices="tripinfo_carIn60260:1 routing_carIn60260:1" vType="default_016" speedFactor="0.93" vaporized=""/>
    <tripinfo id="carIn53971:1" depart="57640.00" departLane="272042143_1" departPos="5.10" departSpeed="0.00" departDelay="0.80" arrival="57697.00" arrivalLane="24634414#1_1" arrivalPos="162.19" arrivalSpeed="8.28" duration="57.00" routeLength="493.04" waitingTime="0.00" waitingCount="0" stopTime="0.00" timeLoss="10.94" rerouteNo="1" devices="tripinfo_carIn53971:1 routing_carIn53971:1" vType="default_016" speedFactor="1.00" vaporized=""/>
    <tripinfo id="h3688c1:1" depart="57625.00" departLane="201201950#1_1" departPos="5.10" departSpeed="0.00" departDelay="0.00" arrival="57729.00" arrivalLane="32978638#0_1" arrivalPos="49.29" arrivalSpeed="15.50" duration="104.00" routeLength="1089.75" waitingTime="16.00" waitingCount="1" stopTime="0.00" timeLoss="32.86" rerouteNo="1" devices="tripinfo_h3688c1:1 routing_h3688c1:1" vType="default_016" speedFactor="1.13" vaporized=""/>
    <tripinfo id="h12244c1:3" depart="57612.00" departLane="315358244_1" departPos="5.10" departSpeed="0.00" departDelay="0.40" arrival="57735.00" arrivalLane="386687235_1" arrivalPos="80.84" arrivalSpeed="14.25" duration="123.00" routeLength="1186.14" waitingTime="29.00" waitingCount="1" stopTime="0.00" timeLoss="44.83" rerouteNo="1" devices="tripinfo_h12244c1:3 routing_h12244c1:3" vType="default_016" speedFactor="1.11" vaporized=""/>
    <tripinfo id="h7800c1:5" depart="57696.00" departLane="-447569998#1_1" departPos="5.10" departSpeed="0.00" departDelay="0.00" arrival="57735.00" arrivalLane="-447569998#1_2" arrivalPos="180.76" arrivalSpeed="3.21" duration="39.00" routeLength="175.66" waitingTime="10.00" waitingCount="1" stopTime="0.00" timeLoss="16.49" rerouteNo="1" devices="tripinfo_h7800c1:5 routing_h7800c1:5" vType="default_016" speedFactor="0.94" vaporized=""/>
    <tripinfo id="h4538c1:1" depart="57701.00" departLane="-10427692#1_1" departPos="5.10" departSpeed="0.00" departDelay="0.00" arrival="57744.00" arrivalLane="-128361102#1_1" arrivalPos="274.68" arrivalSpeed="14.90" duration="43.00" routeLength="440.74" waitingTime="2.00" waitingCount="1" stopTime="0.00" timeLoss="13.87" rerouteNo="1" devices="tripinfo_h4538c1:1 routing_h4538c1:1" vType="default_016" speedFactor="1.11" vaporized=""/>
    <tripinfo id="carIn121703:1" depart="57647.00" departLane="386687232#0_1" departPos="5.10" departSpeed="0.00" departDelay="0.30" arrival="57753.00" arrivalLane="-315358244_1" arrivalPos="33.95" arrivalSpeed="14.09" duration="106.00" routeLength="1157.39" waitingTime="10.00" waitingCount="2" stopTime="0.00" timeLoss="29.71" rerouteNo="1" devices="tripinfo_carIn121703:1 routing_carIn121703:1" vType="default_016" speedFactor="1.11" vaporized=""/>
    <tripinfo id="carIn22761:1" depart="57616.00" departLane="-306240162#1_0" departPos="5.10" departSpeed="0.00" departDelay="2.10" arrival="57755.00" arrivalLane="399835085#1_1" arrivalPos="212.23" arrivalSpeed="5.45" duration="139.00" routeLength="1093.26" waitingTime="15.00" waitingCount="2" stopTime="0.00" timeLoss="41.67" rerouteNo="1" devices="tripinfo_carIn22761:1 routing_carIn22761:1" vType="default_016" speedFactor="0.80" vaporized=""/>
    <tripinfo id="h7181c1:1" depart="57660.00" departLane="315358254#0_1" departPos="5.10" departSpeed="0.00" departDelay="0.10" arrival="57755.00" arrivalLane="306240162#0_0" arrivalPos="220.43" arrivalSpeed="12.41" duration="95.00" routeLength="932.35" waitingTime="18.00" waitingCount="1" stopTime="0.00" timeLoss="30.49" rerouteNo="1" devices="tripinfo_h7181c1:1 routing_h7181c1:1" vType="default_016" speedFactor="0.80" vaporized=""/>
    <tripinfo id="h3568c1:3" depart="57656.00" departLane="266565295#5_1" departPos="5.10" departSpeed="0.00" departDelay="0.80" arrival="57756.00" arrivalLane="-24634415_1" arrivalPos="62.03" arrivalSpeed="13.13" duration="100.00" routeLength="807.40" waitingTime="13.00" waitingCount="1" stopTime="0.00" timeLoss="35.64" rerouteNo="1" devices="tripinfo_h3568c1:3 routing_h3568c1:3" vType="default_016" speedFactor="1.00" vaporized=""/>
    <tripinfo id="h5979c1:5" depart="57669.00" departLane="399835085#1_1" departPos="5.10" departSpeed="0.00" departDelay="0.00" arrival="57763.00" arrivalLane="-315358254#1_1" arrivalPos="137.16" arrivalSpeed="12.02" duration="94.00" routeLength="659.33" waitingTime="4.00" waitingCount="1" stopTime="0.00" timeLoss="17.23" rerouteNo="1" devices="tripinfo_h5979c1:5 routing_h5979c1:5" vType="default_016" speedFactor="0.95" vaporized=""/>
    <tripinfo id="h3326c1:2" depart="57656.00" departLane="22716069#0_1" departPos="5.10" departSpeed="0.00" departDelay="0.00" arrival="57765.00" arrivalLane="24634517#13_1" arrivalPos="111.62" arrivalSpeed="13.99" duration="109.00" routeLength="1312.81" waitingTime="0.00" waitingCount="0" stopTime="0.00" timeLoss="15.29" rerouteNo="1" devices="tripinfo_h3326c1:2 routing_h3326c1:2" vType="default_016" speedFactor="1.04" vaporized=""/>
    <tripinfo id="carIn30817:1" depart="57681.00" departLane="315358244_1" departPos="5.10" departSpeed="0.00" departDelay="0.20" arrival="57777.00" arrivalLane="447569997#1_1" arrivalPos="180.93" arrivalSpeed="6.54" duration="96.00" routeLength="718.04" waitingTime="4.00" waitingCount="1" stopTime="0.00" timeLoss="21.20" rerouteNo="1" devices="tripinfo_carIn30817:1 routing_carIn30817:1" vType="default_016" speedFactor="0.83" vaporized=""/>
    <tripinfo id="carIn86816:1" depart="57617.00" departLane="128361102#0_1" departPos="5.10" departSpeed="0.00" departDelay="0.80" arrival="57784.00" arrivalLane="201956811#0_1" arrivalPos="40.40" arrivalSpeed="15.05" duration="167.00" routeLength="2067.33" waitingTime="8.00" waitingCount="1" stopTime="0.00" timeLoss="34.60" rerouteNo="1" devices="tripinfo_carIn86816:1 routing_carIn86816:1" vType="default_016" speedFactor="1.14" vaporized=""/>
    <tripinfo id="h3154c1:1" depart="57658.00" departLane="24634507_1" departPos="5.10" departSpeed="0.00" departDelay="0.00" arrival="57784.00" arrivalLane="-266565295#5_1" arrivalPos="172.76" arrivalSpeed="11.81" duration="126.00" routeLength="1206.22" waitingTime="10.00" waitingCount="2" stopTime="0.00" timeLoss="28.07" rerouteNo="1" devices="tripinfo_h3154c1:1 routing_h3154c1:1" vType="default_016" speedFactor="0.91" vaporized=""/>
    <tripinfo id="S5R_frequency1.2" depart="57612.00" departLane="315358250#0_1" departPos="12.10" departSpeed="0.00" departDelay="0.40" arrival="57797.00" arrivalLane="386687235_1" arrivalPos="80.84" arrivalSpeed="13.13" duration="185.00" routeLength="1115.62" waitingTime="73.00" waitingCount="3" stopTime="0.00" timeLoss="103.49" rerouteNo="1" devices="tripinfo_S5R_frequency1.2 routing_S5R_frequency1.2" vType="bus" speedFactor="1.00" vaporized=""/>
    <tripinfo id="h11737c1:1" depart="57665.00" departLane="272042143_1" departPos="5.10" departSpeed="0.00" departDelay="1.50" arrival="57798.00" arrivalLane="-315358254#1_1" arrivalPos="137.16" arrivalSpeed="15.67" duration="133.00" routeLength="1596.88" waitingTime="17.00" waitingCount="1" stopTime="0.00" timeLoss="35.15" rerouteNo="1" devices="tripinfo_h11737c1:1 routing_h11737c1:1" vType="default_016" speedFactor="1.19" vaporized=""/>
    <tripinfo id="h9563c2:5" depart="57631.00" departLane="315358244_1" departPos="5.10" departSpeed="0.00" departDelay="0.70" arrival="57800.00" arrivalLane="386687235_1" arrivalPos="80.84" arrivalSpeed="11.80" duration="169.00" routeLength="1186.14" waitingTime="38.00" waitingCount="2" stopTime="0.00" timeLoss="70.11" rerouteNo="1" devices="tripinfo_h9563c2:5 routing_h9563c2:5" vType="default_016" speedFactor="0.88" vaporized=""/>
    <tripinfo id="carIn118591:1" depart="57689.00" departLane="315358244_1" departPos="5.10" departSpeed="0.00" departDelay="0.20" arrival="57802.00" arrivalLane="386687235_1" arrivalPos="80.84" arrivalSpeed="12.45" duration="113.00" routeLength="1186.14" waitingTime="6.00" waitingCount="1" stopTime="0.00" timeLoss="23.32" rerouteNo="1" devices="tripinfo_carIn118591:1 routing_carIn118591:1" vType="default_016" speedFactor="0.97" vaporized=""/>
    <tripinfo id="h317c2:1" depart="57707.00" departLane="-32978638#0_1" departPos="5.10" departSpeed="0.00" departDelay="0.10" arrival="57803.00" arrivalLane="-266565295#5_1" arrivalPos="172.76" arrivalSpeed="14.60" duration="96.00" routeLength="370.53" waitingTime="61.00" waitingCount="1" stopTime="0.00" timeLoss="71.38" rerouteNo="1" devices="tripinfo_h317c2:1 routing_h317c2:1" vType="default_016" speedFactor="1.11" vaporized=""/>
    <tripinfo id="h330c1:1" depart="57736.00" departLane="-32978638#0_1" departPos="5.10" departSpeed="0.00" departDelay="0.20" arrival="57807.00" arrivalLane="-266565295#5_1" arrivalPos="172.76" arrivalSpeed="13.23" duration="71.00" routeLength="370.53" waitingTime="33.00" waitingCount="1" stopTime="0.00" timeLoss="43.67" rerouteNo="1" devices="tripinfo_h330c1:1 routing_h330c1:1" vType="default_016" speedFactor="1.00" vaporized=""/>
    <tripinfo id="carIn27009:1" depart="57673.00" departLane="-447569998#1_1" departPos="5.10" departSpeed="0.00" departDelay="0.50" arrival="57808.00" arrivalLane="-26677539_1" arrivalPos="152.75" arrivalSpeed="7.11" duration="135.00" routeLength="699.63" waitingTime="31.00" waitingCount="1" stopTime="0.00" timeLoss="47.55" rerouteNo="1" devices="tripinfo_carIn27009:1 routing_carIn27009:1" vType="default_015" speedFactor="0.96" vaporized=""/>
    <tripinfo id="carIn129809:1" depart="57729.00" departLane="-447569998#1_1" departPos="5.10" departSpeed="0.00" departDelay="1.00" arrival="57824.00" arrivalLane="-315358244_1" arrivalPos="33.95" arrivalSpeed="12.38" duration="95.00" routeLength="706.49" waitingTime="14.00" waitingCount="2" stopTime="0.00" timeLoss="29.92" rerouteNo="1" devices="tripinfo_carIn129809:1 routing_carIn129809:1" vType="default_015" speedFactor="0.93" vaporized=""/>
    <tripinfo id="randUni15030:1" depart="57735.00" departLane="386687232#0_1" departPos="5.10" departSpeed="0.00" departDelay="0.10" arrival="57824.00" arrivalLane="26677539_1" arrivalPos="151.98" arrivalSpeed="8.91" duration="89.00" routeLength="919.89" waitingTime="0.00" waitingCount="0" stopTime="0.00" timeLoss="10.85" rerouteNo="1" devices="tripinfo_randUni15030:1 routing_randUni15030:1" vType="random_016" speedFactor="1.07" vaporized=""/>
    <tripinfo id="carIn12365:1" depart="57713.00" departLane="315358244_1" departPos="5.10" departSpeed="0.00" departDelay="0.50" arrival="57826.00" arrivalLane="447569997#1_1" arrivalPos="180.93" arrivalSpeed="7.15" duration="113.00" routeLength="718.04" waitingTime="37.00" waitingCount="1" stopTime="0.00" timeLoss="50.42" rerouteNo="1" devices="tripinfo_carIn12365:1 routing_carIn12365:1" vType="default_016" speedFactor="0.99" vaporized=""/>
    <tripinfo id="carIn107282:1" depart="57749.00" departLane="-447569998#1_1" departPos="5.10" departSpeed="0.00" departDelay="0.00" arrival="57827.00" arrivalLane="315358242#0_1" arrivalPos="165.37" arrivalSpeed="13.00" duration="78.00" routeLength="448.50" waitingTime="25.00" waitingCount="1" stopTime="0.00" timeLoss="34.40" rerouteNo="1" devices="tripinfo_carIn107282:1 routing_carIn107282:1" vType="default_016" speedFactor="0.96" vaporized=""/>
    <tripinfo id="carIn81860:1" depart="57712.00" departLane="128361102#0_1" departPos="5.10" departSpeed="0.00" departDelay="0.60" arrival="57828.00" arrivalLane="-24634517#17_1" arrivalPos="6.43" arrivalSpeed="7.78" duration="116.00" routeLength="1229.64" waitingTime="11.00" waitingCount="2" stopTime="0.00" timeLoss="32.47" rerouteNo="1" devices="tripinfo_carIn81860:1 routing_carIn81860:1" vType="default_016" speedFactor="1.09" vaporized=""/>
    <tripinfo id="randUni14624:1" depart="57606.00" departLane="315358244_1" departPos="5.10" departSpeed="0.00" departDelay="0.80" arrival="57833.00" arrivalLane="-25149001#4_1" arrivalPos="105.67" arrivalSpeed="9.77" duration="227.00" routeLength="2803.98" waitingTime="32.00" waitingCount="1" stopTime="0.00" timeLoss="57.47" rerouteNo="1" devices="tripinfo_randUni14624:1 routing_randUni14624:1" vType="random_016" speedFactor="1.25" vaporized=""/>
    <tripinfo id="h8343c1:5" depart="57679.00" departLane="315358254#0_1" departPos="5.10" departSpeed="0.00" departDelay="0.60" arrival="57834.00" arrivalLane="-24634510#5_1" arrivalPos="236.88" arrivalSpeed="13.01" duration="155.00" routeLength="2056.84" waitingTime="1.00" waitingCount="1" stopTime="0.00" timeLoss="23.71" rerouteNo="1" devices="tripinfo_h8343c1:5 routing_h8343c1:5" vType="default_016" speedFactor="0.95" vaporized=""/>
    <tripinfo id="carIn50326:1" depart="57651.00" departLane="128361102#0_1" departPos="5.10" departSpeed="0.00" departDelay="0.30" arrival="57842.00" arrivalLane="18809673#0_1" arrivalPos="473.56" arrivalSpeed="13.35" duration="191.00" routeLength="1591.07" waitingTime="36.00" waitingCount="2" stopTime="0.00" timeLoss="61.25" rerouteNo="1" devices="tripinfo_carIn50326:1 routing_carIn50326:1" vType="default_016" speedFactor="1.00" vaporized=""/>
    <tripinfo id="h17600c1:1" depart="57662.00" departLane="272042143_1" departPos="5.10" departSpeed="0.00" departDelay="0.30" arrival="57846.00" arrivalLane="201238729#3_1" arrivalPos="431.02" arrivalSpeed="13.84" duration="184.00" routeLength="2100.26" waitingTime="14.00" waitingCount="1" stopTime="0.00" timeLoss="31.83" rerouteNo="1" devices="tripinfo_h17600c1:1 routing_h17600c1:1" vType="default_016" speedFactor="1.00" vaporized=""/>
    <tripinfo id="h6541c1:3" depart="57727.00" departLane="201950247#3_1" departPos="5.10" departSpeed="0.00" departDelay="0.00" arrival="57849.00" arrivalLane="32978638#0_1" arrivalPos="49.29" arrivalSpeed="14.72" duration="122.00" routeLength="1176.17" waitingTime="10.00" waitingCount="1" stopTime="0.00" timeLoss="30.22" rerouteNo="1" devices="tripinfo_h6541c1:3 routing_h6541c1:3" vType="default_016" speedFactor="1.12" vaporized=""/>
    <tripinfo id="randUni31145:1" depart="57814.00" departLane="10425609#0_1" departPos="5.10" departSpeed="0.00" departDelay="0.30" arrival="57856.00" arrivalLane="201956810_1" arrivalPos="71.65" arrivalSpeed="11.18" duration="42.00" routeLength="255.78" waitingTime="10.00" waitingCount="1" stopTime="0.00" timeLoss="20.17" rerouteNo="1" devices="tripinfo_randUni31145:1 routing_randUni31145:1" vType="random_016" speedFactor="0.89" vaporized=""/>
    <tripinfo id="carIn82278:1" depart="57702.00" departLane="-306240162#1_0" departPos="5.10" departSpeed="0.00" departDelay="0.70" arrival="57858.00" arrivalLane="399835085#1_1" arrivalPos="212.23" arrivalSpeed="6.98" duration="156.00" routeLength="1093.26" waitingTime="46.00" waitingCount="2" stopTime="0.00" timeLoss="70.75" rerouteNo="1" devices="tripinfo_carIn82278:1 routing_carIn82278:1" vType="default_016" speedFactor="0.91" vaporized=""/>
    <tripinfo id="carIn12858:1" depart="57661.00" departLane="128361109#1_1" departPos="5.10" departSpeed="0.00" departDelay="0.90" arrival="57861.00" arrivalLane="399835085#1_1" arrivalPos="212.23" arrivalSpeed="7.56" duration="200.00" routeLength="1738.12" waitingTime="49.00" waitingCount="1" stopTime="0.00" timeLoss="76.47" rerouteNo="1" devices="tripinfo_carIn12858:1 routing_carIn12858:1" vType="default_016" speedFactor="0.94" vaporized=""/>
    <tripinfo id="carIn48184:1" depart="57613.00" departLane="-306240162#1_0" departPos="5.10" departSpeed="0.00" departDelay="0.70" arrival="57862.00" arrivalLane="386687235_2" arrivalPos="80.84" arrivalSpeed="16.76" duration="249.00" routeLength="2257.41" waitingTime="84.00" waitingCount="4" stopTime="0.00" timeLoss="129.02" rerouteNo="1" devices="tripinfo_carIn48184:1 routing_carIn48184:1" vType="default_016" speedFactor="1.24" vaporized=""/>
    <tripinfo id="h16072c2:3" depart="57663.00" departLane="315358254#0_1" departPos="5.10" departSpeed="0.00" departDelay="2.50" arrival="57864.00" arrivalLane="386687235_1" arrivalPos="80.84" arrivalSpeed="15.46" duration="201.00" routeLength="1611.92" waitingTime="75.00" waitingCount="2" stopTime="0.00" timeLoss="98.81" rerouteNo="1" devices="tripinfo_h16072c2:3 routing_h16072c2:3" vType="default_016" speedFactor="1.15" vaporized=""/>
    <tripinfo id="carIn75660:1" depart="57679.00" departLane="128361109#1_1" departPos="5.10" departSpeed="0.00" departDelay="3.40" arrival="57865.00" arrivalLane="386687235_2" arrivalPos="80.84" arrivalSpeed="13.47" duration="186.00" routeLength="2088.57" waitingTime="22.00" waitingCount="2" stopTime="0.00" timeLoss="44.11" rerouteNo="1" devices="tripinfo_carIn75660:1 routing_carIn75660:1" vType="default_016" speedFactor="1.06" vaporized=""/>
    <tripinfo id="carIn7949:1" depart="57676.00" departLane="128361109#1_1" departPos="5.10" departSpeed="0.00" departDelay="2.10" arrival="57866.00" arrivalLane="386687235_1" arrivalPos="80.84" arrivalSpeed="15.17" duration="190.00" routeLength="2088.57" waitingTime="25.00" waitingCount="2" stopTime="0.00" timeLoss="52.47" rerouteNo="1" devices="tripinfo_carIn7949:1 routing_carIn7949:1" vType="default_016" speedFactor="1.10" vaporized=""/>
    <tripinfo id="carIn82220:1" depart="57619.00" departLane="-306240162#1_0" departPos="5.10" departSpeed="0.00" departDelay="3.50" arrival="57867.00" arrivalLane="386687235_2" arrivalPos="80.84" arrivalSpeed="13.03" duration="248.00" routeLength="2257.41" waitingTime="51.00" waitingCount="3" stopTime="0.00" timeLoss="98.52" rerouteNo="1" devices="tripinfo_carIn82220:1 routing_carIn82220:1" vType="default_016" speedFactor="0.99" vaporized=""/>
    <tripinfo id="carIn85747:1" depart="57673.00" departLane="128361109#1_1" departPos="5.10" departSpeed="0.00" departDelay="0.70" arrival="57868.00" arrivalLane="386687235_1" arrivalPos="80.84" arrivalSpeed="13.18" duration="195.00" routeLength="2088.57" waitingTime="14.00" waitingCount="1" stopTime="0.00" timeLoss="39.12" rerouteNo="1" devices="tripinfo_carIn85747:1 routing_carIn85747:1" vType="default_016" speedFactor="0.96" vaporized=""/>
    <tripinfo id="h3536c1:1" depart="57767.00" departLane="-24634413#2_1" departPos="5.10" departSpeed="0.00" departDelay="0.00" arrival="57869.00" arrivalLane="32978638#0_1" arrivalPos="49.29" arrivalSpeed="16.01" duration="102.00" routeLength="953.61" waitingTime="3.00" waitingCount="1" stopTime="0.00" timeLoss="23.27" rerouteNo="1" devices="tripinfo_h3536c1:1 routing_h3536c1:1" vType="default_016" speedFactor="1.16" vaporized=""/>
    <tripinfo id="carIn102915:1" depart="57643.00" departLane="128361102#0_1" departPos="5.10" departSpeed="0.00" departDelay="0.40" arrival="57872.00" arrivalLane="201956811#0_1" arrivalPos="40.40" arrivalSpeed="13.72" duration="229.00" routeLength="2067.33" waitingTime="48.00" waitingCount="3" stopTime="0.00" timeLoss="79.08" rerouteNo="1" devices="tripinfo_carIn102915:1 routing_carIn102915:1" vType="default_016" speedFactor="1.01" vaporized=""/>
    <tripinfo id="randUni33724:1" depart="57646.00" departLane="128361102#0_1" departPos="5.10" departSpeed="0.00" departDelay="1.20" arrival="57873.00" arrivalLane="201956811#0_1" arrivalPos="40.40" arrivalSpeed="14.10" duration="227.00" routeLength="2067.33" waitingTime="44.00" waitingCount="2" stopTime="0.00" timeLoss="87.83" rerouteNo="1" devices="tripinfo_randUni33724:1 routing_randUni33724:1" vType="random_016" speedFactor="1.09" vaporized=""/>
    <tripinfo id="h5938c1:1" depart="57740.00" departLane="-26677542#0_1" departPos="5.10" departSpeed="0.00" departDelay="0.00" arrival="57873.00" arrivalLane="447569997#1_1" arrivalPos="180.93" arrivalSpeed="7.57" duration="133.00" routeLength="1093.64" waitingTime="9.00" waitingCount="1" stopTime="0.00" timeLoss="26.71" rerouteNo="1" devices="tripinfo_h5938c1:1 routing_h5938c1:1" vType="default_016" speedFactor="0.91" vaporized=""/>
    <tripinfo id="h17890c1:3" depart="57792.00" departLane="386687232#0_1" departPos="5.10" departSpeed="0.00" departDelay="0.00" arrival="57873.00" arrivalLane="32978638#0_1" arrivalPos="49.29" arrivalSpeed="13.47" duration="81.00" routeLength="792.72" waitingTime="7.00" waitingCount="1" stopTime="0.00" timeLoss="22.61" rerouteNo="1" devices="tripinfo_h17890c1:3 routing_h17890c1:3" vType="default_016" speedFactor="1.01" vaporized=""/>
    <tripinfo id="carIn73855:1" depart="57743.00" departLane="386687232#0_1" departPos="5.10" departSpeed="0.00" departDelay="0.50" arrival="57874.00" arrivalLane="-315358244_2" arrivalPos="33.95" arrivalSpeed="13.89" duration="131.00" routeLength="1157.39" waitingTime="21.00" waitingCount="3" stopTime="0.00" timeLoss="46.31" rerouteNo="1" devices="tripinfo_carIn73855:1 routing_carIn73855:1" vType="default_016" speedFactor="1.00" vaporized=""/>
    <tripinfo id="carIn8642:1" depart="57774.00" departLane="-447569998#1_1" departPos="5.10" departSpeed="0.00" departDelay="0.90" arrival="57874.00" arrivalLane="-315358244_1" arrivalPos="33.95" arrivalSpeed="14.10" duration="100.00" routeLength="706.49" waitingTime="23.00" waitingCount="2" stopTime="0.00" timeLoss="40.22" rerouteNo="1" devices="tripinfo_carIn8642:1 routing_carIn8642:1" vType="default_016" speedFactor="1.02" vaporized=""/>
    <tripinfo id="carIn126378:1" depart="57746.00" departLane="386687232#0_1" departPos="5.10" departSpeed="0.00" departDelay="1.80" arrival="57876.00" arrivalLane="-315358244_2" arrivalPos="33.95" arrivalSpeed="12.54" duration="130.00" routeLength="1157.39" waitingTime="14.00" waitingCount="2" stopTime="0.00" timeLoss="41.85" rerouteNo="1" devices="tripinfo_carIn126378:1 routing_carIn126378:1" vType="default_016" speedFactor="0.96" vaporized=""/>
    <tripinfo id="h645c1:1" depart="57622.00" departLane="266565295#5_1" departPos="5.10" departSpeed="0.00" departDelay="0.40" arrival="57877.00" arrivalLane="-315358244_1" arrivalPos="33.95" arrivalSpeed="11.26" duration="255.00" routeLength="1910.83" waitingTime="53.00" waitingCount="3" stopTime="0.00" timeLoss="86.54" rerouteNo="1" devices="tripinfo_h645c1:1 routing_h645c1:1" vType="default_016" speedFactor="0.82" vaporized=""/>
    <tripinfo id="50R_frequency3.17" depart="57674.00" departLane="-18809673#6_1" departPos="12.10" departSpeed="0.00" departDelay="0.70" arrival="57880.00" arrivalLane="201956811#0_1" arrivalPos="40.40" arrivalSpeed="12.03" duration="206.00" routeLength="1954.47" waitingTime="24.00" waitingCount="1" stopTime="0.00" timeLoss="61.04" rerouteNo="1" devices="tripinfo_50R_frequency3.17 routing_50R_frequency3.17" vType="bus" speedFactor="1.00" vaporized=""/>
    <tripinfo id="h18601c1:3" depart="57676.00" departLane="128361102#0_1" departPos="5.10" departSpeed="0.00" departDelay="2.00" arrival="57889.00" arrivalLane="201956811#0_1" arrivalPos="40.40" arrivalSpeed="13.12" duration="213.00" routeLength="2067.33" waitingTime="14.00" waitingCount="3" stopTime="0.00" timeLoss="57.50" rerouteNo="1" devices="tripinfo_h18601c1:3 routing_h18601c1:3" vType="default_016" speedFactor="0.98" vaporized=""/>
    <tripinfo id="h3864c1:3" depart="57678.00" departLane="24693977#1_1" departPos="5.10" departSpeed="0.00" departDelay="0.00" arrival="57890.00" arrivalLane="201956820_2" arrivalPos="48.33" arrivalSpeed="11.71" duration="212.00" routeLength="1574.85" waitingTime="31.00" waitingCount="3" stopTime="0.00" timeLoss="64.25" rerouteNo="1" devices="tripinfo_h3864c1:3 routing_h3864c1:3" vType="default_016" speedFactor="0.88" vaporized=""/>
    <tripinfo id="carIn100288:1" depart="57664.00" departLane="128361102#0_1" departPos="5.10" departSpeed="0.00" departDelay="0.60" arrival="57891.00" arrivalLane="201956811#0_1" arrivalPos="40.40" arrivalSpeed="13.11" duration="227.00" routeLength="2067.33" waitingTime="29.00" waitingCount="4" stopTime="0.00" timeLoss="76.22" rerouteNo="1" devices="tripinfo_carIn100288:1 routing_carIn100288:1" vType="default_016" speedFactor="1.00" vaporized=""/>
    <tripinfo id="randUni2407:1" depart="57820.00" departLane="10425609#0_1" departPos="5.10" departSpeed="0.00" departDelay="0.80" arrival="57891.00" arrivalLane="201956810_1" arrivalPos="71.65" arrivalSpeed="15.02" duration="71.00" routeLength="255.78" waitingTime="38.00" waitingCount="2" stopTime="0.00" timeLoss="53.80" rerouteNo="1" devices="tripinfo_randUni2407:1 routing_randUni2407:1" vType="random_016" speedFactor="1.14" vaporized=""/>
    <tripinfo id="carIn80064:1" depart="57603.00" departLane="128361109#1_1" departPos="5.10" departSpeed="0.00" departDelay="0.40" arrival="57892.00" arrivalLane="-315358254#1_1" arrivalPos="137.16" arrivalSpeed="13.28" duration="289.00" routeLength="1587.97" waitingTime="135.00" waitingCount="5" stopTime="0.00" timeLoss="199.48" rerouteNo="1" devices="tripinfo_carIn80064:1 routing_carIn80064:1" vType="default_016" speedFactor="1.00" vaporized=""/>
    <tripinfo id="carIn29531:1" depart="57667.00" departLane="128361102#0_1" departPos="5.10" departSpeed="0.00" departDelay="1.60" arrival="57893.00" arrivalLane="201956811#0_1" arrivalPos="40.40" arrivalSpeed="13.54" duration="226.00" routeLength="2067.33" waitingTime="22.00" waitingCount="4" stopTime="0.00" timeLoss="74.61" rerouteNo="1" devices="tripinfo_carIn29531:1 routing_carIn29531:1" vType="default_016" speedFactor="1.00" vaporized=""/>
    <tripinfo id="h7097c1:1" depart="57670.00" departLane="315358242#0_1" departPos="5.10" departSpeed="0.00" departDelay="0.60" arrival="57899.00" arrivalLane="306240162#0_0" arrivalPos="220.43" arrivalSpeed="18.77" duration="229.00" routeLength="2586.94" waitingTime="42.00" waitingCount="4" stopTime="0.00" timeLoss="77.39" rerouteNo="1" devices="tripinfo_h7097c1:1 routing_h7097c1:1" vType="default_016" speedFactor="1.14" vaporized=""/>
    <tripinfo id="h6846c2:1" depart="57741.00" departLane="26677213#0_1" departPos="5.10" departSpeed="0.00" departDelay="0.00" arrival="57899.00" arrivalLane="386687235_1" arrivalPos="80.84" arrivalSpeed="12.90" duration="158.00" routeLength="1412.24" waitingTime="0.00" waitingCount="0" stopTime="0.00" timeLoss="21.39" rerouteNo="1" devices="tripinfo_h6846c2:1 routing_h6846c2:1" vType="default_016" speedFactor="1.01" vaporized=""/>
    <tripinfo id="randUni23028:1" depart="57884.00" departLane="124812856#0_1" departPos="5.10" departSpeed="0.00" departDelay="0.10" arrival="57900.00" arrivalLane="201956810_1" arrivalPos="71.65" arrivalSpeed="14.62" duration="16.00" routeLength="134.91" waitingTime="0.00" waitingCount="0" stopTime="0.00" timeLoss="5.88" rerouteNo="1" devices="tripinfo_randUni23028:1 routing_randUni23028:1" vType="random_016" speedFactor="1.11" vaporized=""/>
    <tripinfo id="h5170c2:1" depart="57631.00" departLane="201201953#4_1" departPos="5.10" departSpeed="0.00" departDelay="0.00" arrival="57901.00" arrivalLane="-266565295#5_1" arrivalPos="172.76" arrivalSpeed="13.33" duration="270.00" routeLength="3097.92" waitingTime="3.00" waitingCount="1" stopTime="0.00" timeLoss="37.81" rerouteNo="1" devices="tripinfo_h5170c2:1 routing_h5170c2:1" vType="default_016" speedFactor="0.98" vaporized=""/>
    <tripinfo id="carIn2912:1" depart="57670.00" departLane="128361102#0_1" departPos="5.10" departSpeed="0.00" departDelay="3.10" arrival="57902.00" arrivalLane="201956811#0_1" arrivalPos="40.40" arrivalSpeed="15.85" duration="232.00" routeLength="2067.33" waitingTime="24.00" waitingCount="5" stopTime="0.00" timeLoss="100.37" rerouteNo="1" devices="tripinfo_carIn2912:1 routing_carIn2912:1" vType="default_016" speedFactor="1.15" vaporized=""/>
    <tripinfo id="carIn81681:1" depart="57726.00" departLane="272042143_1" departPos="5.10" departSpeed="0.00" departDelay="0.30" arrival="57902.00" arrivalLane="306240162#0_0" arrivalPos="220.43" arrivalSpeed="17.24" duration="176.00" routeLength="2246.89" waitingTime="7.00" waitingCount="2" stopTime="0.00" timeLoss="34.87" rerouteNo="1" devices="tripinfo_carIn81681:1 routing_carIn81681:1" vType="default_016" speedFactor="1.05" vaporized=""/>