<?xml version="1.0" encoding="UTF-8"?>

<!-- generated on 12/19/21 18:06:26 by Eclipse SUMO sumo Version 1.7.0
<configuration xmlns:xsi="http://www.w3.org/2001/XMLSchema-instance" xsi:noNamespaceSchemaLocation="http://sumo.dlr.de/xsd/sumoConfiguration.xsd">

    <input>
        <net-file value="C:\Users\longs\Desktop\RESCO-main\environments\grid4x4\grid4x4.net.xml"/>
        <route-files value="C:\Users\longs\Desktop\RESCO-main\environments\grid4x4\grid4x4_45.rou.xml"/>
    </input>

    <output>
        <tripinfo-output value="C:\Users\longs\Desktop\RESCO-main\logs\IDQN-tr1-grid4x4-0-drqlong-delaydiff_pressure09\tripinfo_45.xml"/>
        <tripinfo-output.write-unfinished value="true"/>
    </output>

    <processing>
        <time-to-teleport value="-1"/>
    </processing>

    <report>
        <no-warnings value="true"/>
        <no-step-log value="true"/>
    </report>

    <traci_server>
        <remote-port value="58493"/>
    </traci_server>

    <random_number>
        <random value="true"/>
    </random_number>

</configuration>
-->

<tripinfos xmlns:xsi="http://www.w3.org/2001/XMLSchema-instance" xsi:noNamespaceSchemaLocation="http://sumo.dlr.de/xsd/tripinfo_file.xsd">
    <tripinfo id="6" depart="53.00" departLane="top3D3_0" departPos="5.10" departSpeed="0.00" departDelay="0.00" arrival="119.00" arrivalLane="D3right3_0" arrivalPos="286.40" arrivalSpeed="13.28" duration="66.00" routeLength="597.55" waitingTime="14.00" waitingCount="1" stopTime="0.00" timeLoss="22.22" rerouteNo="0" devices="tripinfo_6" vType="DEFAULT_VEHTYPE" speedFactor="1.01" vaporized=""/>
    <tripinfo id="7" depart="56.00" departLane="top3D3_0" departPos="5.10" departSpeed="0.00" departDelay="1.00" arrival="129.00" arrivalLane="C3top2_0" arrivalPos="286.40" arrivalSpeed="15.11" duration="73.00" routeLength="858.56" waitingTime="2.00" waitingCount="2" stopTime="0.00" timeLoss="19.24" rerouteNo="0" devices="tripinfo_7" vType="DEFAULT_VEHTYPE" speedFactor="1.17" vaporized=""/>
    <tripinfo id="4" depart="48.00" departLane="left2A2_0" departPos="5.10" departSpeed="0.00" departDelay="0.00" arrival="131.00" arrivalLane="A1left1_0" arrivalPos="286.40" arrivalSpeed="12.40" duration="83.00" routeLength="858.56" waitingTime="2.00" waitingCount="2" stopTime="0.00" timeLoss="17.93" rerouteNo="0" devices="tripinfo_4" vType="DEFAULT_VEHTYPE" speedFactor="0.97" vaporized=""/>
    <tripinfo id="0" depart="0.00" departLane="bottom0A0_0" departPos="5.10" departSpeed="0.00" departDelay="0.00" arrival="140.00" arrivalLane="D0bottom3_0" arrivalPos="286.40" arrivalSpeed="12.79" duration="140.00" routeLength="1461.60" waitingTime="9.00" waitingCount="3" stopTime="0.00" timeLoss="33.35" rerouteNo="0" devices="tripinfo_0" vType="DEFAULT_VEHTYPE" speedFactor="1.00" vaporized=""/>
    <tripinfo id="10" depart="66.00" departLane="left1A1_0" departPos="5.10" departSpeed="0.00" departDelay="0.00" arrival="154.00" arrivalLane="A2left2_0" arrivalPos="286.40" arrivalSpeed="12.86" duration="88.00" routeLength="894.86" waitingTime="9.00" waitingCount="1" stopTime="0.00" timeLoss="19.87" rerouteNo="0" devices="tripinfo_10" vType="DEFAULT_VEHTYPE" speedFactor="0.96" vaporized=""/>
    <tripinfo id="2" depart="37.00" departLane="bottom2C0_0" departPos="5.10" departSpeed="0.00" departDelay="0.00" arrival="162.00" arrivalLane="B0bottom1_0" arrivalPos="286.40" arrivalSpeed="12.56" duration="125.00" routeLength="894.86" waitingTime="38.00" waitingCount="2" stopTime="0.00" timeLoss="52.75" rerouteNo="0" devices="tripinfo_2" vType="DEFAULT_VEHTYPE" speedFactor="0.92" vaporized=""/>
    <tripinfo id="9" depart="59.00" departLane="bottom3D0_0" departPos="5.10" departSpeed="0.00" departDelay="0.00" arrival="189.00" arrivalLane="D3top3_0" arrivalPos="286.40" arrivalSpeed="13.05" duration="130.00" routeLength="1495.58" waitingTime="6.00" waitingCount="2" stopTime="0.00" timeLoss="24.03" rerouteNo="0" devices="tripinfo_9" vType="DEFAULT_VEHTYPE" speedFactor="1.02" vaporized=""/>
    <tripinfo id="17" depart="101.00" departLane="left1A1_0" departPos="5.10" departSpeed="0.00" departDelay="0.00" arrival="219.00" arrivalLane="A3top0_0" arrivalPos="286.40" arrivalSpeed="13.27" duration="118.00" routeLength="1195.18" waitingTime="13.00" waitingCount="1" stopTime="0.00" timeLoss="29.57" rerouteNo="0" devices="tripinfo_17" vType="DEFAULT_VEHTYPE" speedFactor="0.98" vaporized=""/>
    <tripinfo id="18" depart="104.00" departLane="bottom0A0_0" departPos="5.10" departSpeed="0.00" departDelay="0.00" arrival="233.00" arrivalLane="D0right0_0" arrivalPos="286.40" arrivalSpeed="12.76" duration="129.00" routeLength="1479.94" waitingTime="1.00" waitingCount="1" stopTime="0.00" timeLoss="17.73" rerouteNo="0" devices="tripinfo_18" vType="DEFAULT_VEHTYPE" speedFactor="0.96" vaporized=""/>
    <tripinfo id="19" depart="108.00" departLane="left1A1_0" departPos="5.10" departSpeed="0.00" departDelay="0.00" arrival="235.00" arrivalLane="B3top1_0" arrivalPos="286.40" arrivalSpeed="15.61" duration="127.00" routeLength="1495.35" waitingTime="14.00" waitingCount="2" stopTime="0.00" timeLoss="34.03" rerouteNo="0" devices="tripinfo_19" vType="DEFAULT_VEHTYPE" speedFactor="1.17" vaporized=""/>
    <tripinfo id="3" depart="43.00" departLane="bottom1B0_0" departPos="5.10" departSpeed="0.00" departDelay="0.00" arrival="237.00" arrivalLane="D2right2_0" arrivalPos="286.40" arrivalSpeed="14.88" duration="194.00" routeLength="1780.11" waitingTime="39.00" waitingCount="4" stopTime="0.00" timeLoss="76.34" rerouteNo="0" devices="tripinfo_3" vType="DEFAULT_VEHTYPE" speedFactor="1.10" vaporized=""/>
    <tripinfo id="8" depart="57.00" departLane="right1D1_0" departPos="5.10" departSpeed="0.00" departDelay="0.00" arrival="249.00" arrivalLane="A3left3_0" arrivalPos="286.40" arrivalSpeed="13.30" duration="192.00" routeLength="2082.76" waitingTime="18.00" waitingCount="3" stopTime="0.00" timeLoss="43.95" rerouteNo="0" devices="tripinfo_8" vType="DEFAULT_VEHTYPE" speedFactor="1.02" vaporized=""/>
    <tripinfo id="5" depart="51.00" departLane="left2A2_0" departPos="5.10" departSpeed="0.00" departDelay="0.00" arrival="260.00" arrivalLane="D3top3_0" arrivalPos="286.40" arrivalSpeed="13.20" duration="209.00" routeLength="1795.52" waitingTime="44.00" waitingCount="3" stopTime="0.00" timeLoss="78.03" rerouteNo="0" devices="tripinfo_5" vType="DEFAULT_VEHTYPE" speedFactor="1.00" vaporized=""/>
    <tripinfo id="11" depart="66.00" departLane="bottom2C0_0" departPos="5.10" departSpeed="0.00" departDelay="0.00" arrival="271.00" arrivalLane="A2left2_0" arrivalPos="286.40" arrivalSpeed="11.79" duration="205.00" routeLength="1795.52" waitingTime="40.00" waitingCount="3" stopTime="0.00" timeLoss="65.58" rerouteNo="0" devices="tripinfo_11" vType="DEFAULT_VEHTYPE" speedFactor="0.93" vaporized=""/>
    <tripinfo id="29" depart="148.00" departLane="left2A2_0" departPos="5.10" departSpeed="0.00" departDelay="0.00" arrival="274.00" arrivalLane="A0bottom0_0" arrivalPos="286.40" arrivalSpeed="9.81" duration="126.00" routeLength="1179.77" waitingTime="4.00" waitingCount="1" stopTime="0.00" timeLoss="18.24" rerouteNo="0" devices="tripinfo_29" vType="DEFAULT_VEHTYPE" speedFactor="0.80" vaporized=""/>
    <tripinfo id="30" depart="152.00" departLane="left3A3_0" departPos="5.10" departSpeed="0.00" departDelay="0.00" arrival="280.00" arrivalLane="A0left0_0" arrivalPos="286.40" arrivalSpeed="13.82" duration="128.00" routeLength="1461.60" waitingTime="10.00" waitingCount="2" stopTime="0.00" timeLoss="28.63" rerouteNo="0" devices="tripinfo_30" vType="DEFAULT_VEHTYPE" speedFactor="1.08" vaporized=""/>
    <tripinfo id="22" depart="120.00" departLane="right2D2_0" departPos="5.10" departSpeed="0.00" departDelay="0.00" arrival="284.00" arrivalLane="D2right2_0" arrivalPos="286.40" arrivalSpeed="13.46" duration="164.00" routeLength="1748.75" waitingTime="9.00" waitingCount="3" stopTime="0.00" timeLoss="38.60" rerouteNo="0" devices="tripinfo_22" vType="DEFAULT_VEHTYPE" speedFactor="1.02" vaporized=""/>
    <tripinfo id="15" depart="88.00" departLane="top0A3_0" departPos="5.10" departSpeed="0.00" departDelay="0.00" arrival="286.00" arrivalLane="D1right1_0" arrivalPos="286.40" arrivalSpeed="15.94" duration="198.00" routeLength="2095.69" waitingTime="32.00" waitingCount="3" stopTime="0.00" timeLoss="66.92" rerouteNo="0" devices="tripinfo_15" vType="DEFAULT_VEHTYPE" speedFactor="1.16" vaporized=""/>
    <tripinfo id="1" depart="7.00" departLane="top0A3_0" departPos="5.10" departSpeed="0.00" departDelay="0.00" arrival="290.00" arrivalLane="D0bottom3_0" arrivalPos="286.40" arrivalSpeed="12.51" duration="283.00" routeLength="2380.22" waitingTime="65.00" waitingCount="5" stopTime="0.00" timeLoss="106.84" rerouteNo="0" devices="tripinfo_1" vType="DEFAULT_VEHTYPE" speedFactor="0.98" vaporized=""/>
    <tripinfo id="58" depart="257.00" departLane="right3D3_0" departPos="5.10" departSpeed="0.00" departDelay="0.00" arrival="305.00" arrivalLane="D3top3_0" arrivalPos="286.40" arrivalSpeed="15.89" duration="48.00" routeLength="576.73" waitingTime="1.00" waitingCount="1" stopTime="0.00" timeLoss="12.00" rerouteNo="0" devices="tripinfo_58" vType="DEFAULT_VEHTYPE" speedFactor="1.19" vaporized=""/>
    <tripinfo id="13" depart="87.00" departLane="bottom3D0_0" departPos="5.10" departSpeed="0.00" departDelay="0.00" arrival="306.00" arrivalLane="C3top2_0" arrivalPos="286.40" arrivalSpeed="15.62" duration="219.00" routeLength="1782.59" waitingTime="75.00" waitingCount="5" stopTime="0.00" timeLoss="110.34" rerouteNo="0" devices="tripinfo_13" vType="DEFAULT_VEHTYPE" speedFactor="1.20" vaporized=""/>
    <tripinfo id="12" depart="75.00" departLane="right3D3_0" departPos="5.10" departSpeed="0.00" departDelay="0.00" arrival="308.00" arrivalLane="A1left1_0" arrivalPos="286.40" arrivalSpeed="14.01" duration="233.00" routeLength="2080.05" waitingTime="53.00" waitingCount="5" stopTime="0.00" timeLoss="91.97" rerouteNo="0" devices="tripinfo_12" vType="DEFAULT_VEHTYPE" speedFactor="1.07" vaporized=""/>
    <tripinfo id="42" depart="191.00" departLane="top1B3_0" departPos="5.10" departSpeed="0.00" departDelay="0.00" arrival="309.00" arrivalLane="A2left2_0" arrivalPos="286.40" arrivalSpeed="14.25" duration="118.00" routeLength="1179.77" waitingTime="16.00" waitingCount="2" stopTime="0.00" timeLoss="34.64" rerouteNo="0" devices="tripinfo_42" vType="DEFAULT_VEHTYPE" speedFactor="1.03" vaporized=""/>
    <tripinfo id="25" depart="128.00" departLane="bottom1B0_0" departPos="5.10" departSpeed="0.00" departDelay="0.00" arrival="310.00" arrivalLane="C3top2_0" arrivalPos="286.40" arrivalSpeed="14.90" duration="182.00" routeLength="1782.72" waitingTime="28.00" waitingCount="4" stopTime="0.00" timeLoss="61.36" rerouteNo="0" devices="tripinfo_25" vType="DEFAULT_VEHTYPE" speedFactor="1.08" vaporized=""/>
    <tripinfo id="45" depart="197.00" departLane="right2D2_0" departPos="5.10" departSpeed="0.00" departDelay="0.00" arrival="311.00" arrivalLane="D0right0_0" arrivalPos="286.40" arrivalSpeed="12.41" duration="114.00" routeLength="1197.66" waitingTime="7.00" waitingCount="1" stopTime="0.00" timeLoss="19.41" rerouteNo="0" devices="tripinfo_45" vType="DEFAULT_VEHTYPE" speedFactor="0.93" vaporized=""/>
    <tripinfo id="14" depart="87.00" departLane="top3D3_0" departPos="5.10" departSpeed="0.00" departDelay="0.00" arrival="313.00" arrivalLane="A1left1_0" arrivalPos="286.40" arrivalSpeed="12.02" duration="226.00" routeLength="2080.28" waitingTime="32.00" waitingCount="3" stopTime="0.00" timeLoss="62.36" rerouteNo="0" devices="tripinfo_14" vType="DEFAULT_VEHTYPE" speedFactor="0.92" vaporized=""/>
    <tripinfo id="57" depart="254.00" departLane="top1B3_0" departPos="5.10" departSpeed="0.00" departDelay="0.00" arrival="315.00" arrivalLane="A3left3_0" arrivalPos="286.40" arrivalSpeed="15.69" duration="61.00" routeLength="879.60" waitingTime="0.00" waitingCount="0" stopTime="0.00" timeLoss="7.27" rerouteNo="0" devices="tripinfo_57" vType="DEFAULT_VEHTYPE" speedFactor="1.20" vaporized=""/>
    <tripinfo id="16" depart="96.00" departLane="right0D0_0" departPos="5.10" departSpeed="0.00" departDelay="0.00" arrival="318.00" arrivalLane="A2left2_0" arrivalPos="286.40" arrivalSpeed="13.33" duration="222.00" routeLength="2082.76" waitingTime="43.00" waitingCount="4" stopTime="0.00" timeLoss="76.96" rerouteNo="0" devices="tripinfo_16" vType="DEFAULT_VEHTYPE" speedFactor="1.04" vaporized=""/>
    <tripinfo id="24" depart="124.00" departLane="bottom3D0_0" departPos="5.10" departSpeed="0.00" departDelay="0.00" arrival="318.00" arrivalLane="D3top3_0" arrivalPos="286.40" arrivalSpeed="13.62" duration="194.00" routeLength="1495.58" waitingTime="64.00" waitingCount="3" stopTime="0.00" timeLoss="90.59" rerouteNo="0" devices="tripinfo_24" vType="DEFAULT_VEHTYPE" speedFactor="1.04" vaporized=""/>
    <tripinfo id="41" depart="190.00" departLane="top0A3_0" departPos="5.10" departSpeed="0.00" departDelay="0.00" arrival="318.00" arrivalLane="C3top2_0" arrivalPos="286.40" arrivalSpeed="13.54" duration="128.00" routeLength="1197.66" waitingTime="18.00" waitingCount="2" stopTime="0.00" timeLoss="45.44" rerouteNo="0" devices="tripinfo_41" vType="DEFAULT_VEHTYPE" speedFactor="1.06" vaporized=""/>
    <tripinfo id="43" depart="193.00" departLane="right3D3_0" departPos="5.10" departSpeed="0.00" departDelay="0.00" arrival="319.00" arrivalLane="D1right1_0" arrivalPos="286.40" arrivalSpeed="13.88" duration="126.00" routeLength="1197.66" waitingTime="22.00" waitingCount="2" stopTime="0.00" timeLoss="40.47" rerouteNo="0" devices="tripinfo_43" vType="DEFAULT_VEHTYPE" speedFactor="1.02" vaporized=""/>
    <tripinfo id="28" depart="136.00" departLane="top0A3_0" departPos="5.10" departSpeed="0.00" departDelay="0.00" arrival="327.00" arrivalLane="D3right3_0" arrivalPos="286.40" arrivalSpeed="13.75" duration="191.00" routeLength="1495.35" waitingTime="57.00" waitingCount="4" stopTime="0.00" timeLoss="90.79" rerouteNo="0" devices="tripinfo_28" vType="DEFAULT_VEHTYPE" speedFactor="1.08" vaporized=""/>
    <tripinfo id="50" depart="238.00" departLane="top3D3_0" departPos="5.10" departSpeed="0.00" departDelay="0.00" arrival="327.00" arrivalLane="C3top2_0" arrivalPos="286.40" arrivalSpeed="12.12" duration="89.00" routeLength="858.56" waitingTime="3.00" waitingCount="2" stopTime="0.00" timeLoss="17.74" rerouteNo="0" devices="tripinfo_50" vType="DEFAULT_VEHTYPE" speedFactor="0.89" vaporized=""/>
    <tripinfo id="31" depart="153.00" departLane="top1B3_0" departPos="5.10" departSpeed="0.00" departDelay="0.00" arrival="330.00" arrivalLane="B3top1_0" arrivalPos="286.40" arrivalSpeed="12.86" duration="177.00" routeLength="1748.75" waitingTime="12.00" waitingCount="4" stopTime="0.00" timeLoss="41.74" rerouteNo="0" devices="tripinfo_31" vType="DEFAULT_VEHTYPE" speedFactor="0.95" vaporized=""/>
    <tripinfo id="27" depart="133.00" departLane="left2A2_0" departPos="5.10" departSpeed="0.00" departDelay="0.00" arrival="333.00" arrivalLane="D3right3_0" arrivalPos="286.40" arrivalSpeed="11.97" duration="200.00" routeLength="1782.59" waitingTime="25.00" waitingCount="4" stopTime="0.00" timeLoss="56.59" rerouteNo="0" devices="tripinfo_27" vType="DEFAULT_VEHTYPE" speedFactor="0.90" vaporized=""/>
    <tripinfo id="36" depart="169.00" departLane="left0A0_0" departPos="5.10" departSpeed="0.00" departDelay="0.00" arrival="336.00" arrivalLane="D0right0_0" arrivalPos="286.40" arrivalSpeed="15.24" duration="167.00" routeLength="1495.58" waitingTime="49.00" waitingCount="2" stopTime="0.00" timeLoss="73.37" rerouteNo="0" devices="tripinfo_36" vType="DEFAULT_VEHTYPE" speedFactor="1.15" vaporized=""/>
    <tripinfo id="53" depart="245.00" departLane="bottom2C0_0" departPos="5.10" departSpeed="0.00" departDelay="2.00" arrival="339.00" arrivalLane="D0right0_0" arrivalPos="286.40" arrivalSpeed="13.80" duration="94.00" routeLength="879.60" waitingTime="22.00" waitingCount="1" stopTime="0.00" timeLoss="33.85" rerouteNo="0" devices="tripinfo_53" vType="DEFAULT_VEHTYPE" speedFactor="1.07" vaporized=""/>
    <tripinfo id="21" depart="117.00" departLane="right2D2_0" departPos="5.10" departSpeed="0.00" departDelay="0.00" arrival="346.00" arrivalLane="A1left1_0" arrivalPos="286.40" arrivalSpeed="14.97" duration="229.00" routeLength="1782.59" waitingTime="84.00" waitingCount="4" stopTime="0.00" timeLoss="114.20" rerouteNo="0" devices="tripinfo_21" vType="DEFAULT_VEHTYPE" speedFactor="1.13" vaporized=""/>
    <tripinfo id="35" depart="164.00" departLane="right3D3_0" departPos="5.10" departSpeed="0.00" departDelay="0.00" arrival="346.00" arrivalLane="A3top0_0" arrivalPos="286.40" arrivalSpeed="12.61" duration="182.00" routeLength="1477.24" waitingTime="42.00" waitingCount="3" stopTime="0.00" timeLoss="67.34" rerouteNo="0" devices="tripinfo_35" vType="DEFAULT_VEHTYPE" speedFactor="0.94" vaporized=""/>
    <tripinfo id="38" depart="180.00" departLane="top0A3_0" departPos="5.10" departSpeed="0.00" departDelay="0.00" arrival="347.00" arrivalLane="D3right3_0" arrivalPos="286.40" arrivalSpeed="13.88" duration="167.00" routeLength="1495.35" waitingTime="35.00" waitingCount="4" stopTime="0.00" timeLoss="67.12" rerouteNo="0" devices="tripinfo_38" vType="DEFAULT_VEHTYPE" speedFactor="1.08" vaporized=""/>
    <tripinfo id="26" depart="132.00" departLane="left3A3_0" departPos="5.10" departSpeed="0.00" departDelay="0.00" arrival="349.00" arrivalLane="D2right2_0" arrivalPos="286.40" arrivalSpeed="13.32" duration="217.00" routeLength="1782.72" waitingTime="62.00" waitingCount="3" stopTime="0.00" timeLoss="88.38" rerouteNo="0" devices="tripinfo_26" vType="DEFAULT_VEHTYPE" speedFactor="1.01" vaporized=""/>
    <tripinfo id="20" depart="110.00" departLane="right3D3_0" departPos="5.10" departSpeed="0.00" departDelay="0.00" arrival="350.00" arrivalLane="C0bottom2_0" arrivalPos="286.40" arrivalSpeed="11.28" duration="240.00" routeLength="1795.52" waitingTime="55.00" waitingCount="4" stopTime="0.00" timeLoss="87.24" rerouteNo="0" devices="tripinfo_20" vType="DEFAULT_VEHTYPE" speedFactor="0.85" vaporized=""/>
    <tripinfo id="66" depart="296.00" departLane="bottom3D0_0" departPos="5.10" departSpeed="0.00" departDelay="0.00" arrival="353.00" arrivalLane="D0right0_0" arrivalPos="286.40" arrivalSpeed="12.49" duration="57.00" routeLength="576.73" waitingTime="1.00" waitingCount="1" stopTime="0.00" timeLoss="12.26" rerouteNo="0" devices="tripinfo_66" vType="DEFAULT_VEHTYPE" speedFactor="0.96" vaporized=""/>
    <tripinfo id="44" depart="195.00" departLane="top0A3_0" departPos="5.10" departSpeed="0.00" departDelay="0.00" arrival="358.00" arrivalLane="A0bottom0_0" arrivalPos="286.40" arrivalSpeed="14.56" duration="163.00" routeLength="1495.58" waitingTime="43.00" waitingCount="2" stopTime="0.00" timeLoss="60.84" rerouteNo="0" devices="tripinfo_44" vType="DEFAULT_VEHTYPE" speedFactor="1.06" vaporized=""/>
    <tripinfo id="46" depart="199.00" departLane="bottom3D0_0" departPos="5.10" departSpeed="0.00" departDelay="0.00" arrival="361.00" arrivalLane="D2right2_0" arrivalPos="286.40" arrivalSpeed="12.19" duration="162.00" routeLength="1177.07" waitingTime="46.00" waitingCount="3" stopTime="0.00" timeLoss="68.31" rerouteNo="0" devices="tripinfo_46" vType="DEFAULT_VEHTYPE" speedFactor="0.92" vaporized=""/>
    <tripinfo id="63" depart="278.00" departLane="top2C3_0" departPos="5.10" departSpeed="0.00" departDelay="0.00" arrival="363.00" arrivalLane="B3top1_0" arrivalPos="286.40" arrivalSpeed="12.99" duration="85.00" routeLength="858.56" waitingTime="2.00" waitingCount="2" stopTime="0.00" timeLoss="18.31" rerouteNo="0" devices="tripinfo_63" vType="DEFAULT_VEHTYPE" speedFactor="0.95" vaporized=""/>
    <tripinfo id="34" depart="163.00" departLane="bottom2C0_0" departPos="5.10" departSpeed="0.00" departDelay="0.00" arrival="368.00" arrivalLane="D3top3_0" arrivalPos="286.40" arrivalSpeed="14.10" duration="205.00" routeLength="1782.72" waitingTime="49.00" waitingCount="4" stopTime="0.00" timeLoss="80.22" rerouteNo="0" devices="tripinfo_34" vType="DEFAULT_VEHTYPE" speedFactor="1.04" vaporized=""/>
    <tripinfo id="23" depart="121.00" departLane="top0A3_0" departPos="5.10" departSpeed="0.00" departDelay="0.00" arrival="379.00" arrivalLane="D0bottom3_0" arrivalPos="286.40" arrivalSpeed="13.24" duration="258.00" routeLength="2380.22" waitingTime="57.00" waitingCount="4" stopTime="0.00" timeLoss="86.51" rerouteNo="0" devices="tripinfo_23" vType="DEFAULT_VEHTYPE" speedFactor="1.01" vaporized=""/>
    <tripinfo id="33" depart="157.00" departLane="right0D0_0" departPos="5.10" departSpeed="0.00" departDelay="0.00" arrival="384.00" arrivalLane="D0right0_0" arrivalPos="286.40" arrivalSpeed="11.58" duration="227.00" routeLength="1748.75" waitingTime="41.00" waitingCount="4" stopTime="0.00" timeLoss="73.26" rerouteNo="0" devices="tripinfo_33" vType="DEFAULT_VEHTYPE" speedFactor="0.84" vaporized=""/>
    <tripinfo id="39" depart="184.00" departLane="left3A3_0" departPos="5.10" departSpeed="0.00" departDelay="0.00" arrival="389.00" arrivalLane="B0bottom1_0" arrivalPos="286.40" arrivalSpeed="12.82" duration="205.00" routeLength="1780.11" waitingTime="41.00" waitingCount="4" stopTime="0.00" timeLoss="74.69" rerouteNo="0" devices="tripinfo_39" vType="DEFAULT_VEHTYPE" speedFactor="0.99" vaporized=""/>
    <tripinfo id="49" depart="229.00" departLane="bottom0A0_0" departPos="5.10" departSpeed="0.00" departDelay="0.00" arrival="393.00" arrivalLane="A3left3_0" arrivalPos="286.40" arrivalSpeed="11.88" duration="164.00" routeLength="1498.06" waitingTime="18.00" waitingCount="2" stopTime="0.00" timeLoss="38.24" rerouteNo="0" devices="tripinfo_49" vType="DEFAULT_VEHTYPE" speedFactor="0.86" vaporized=""/>
    <tripinfo id="48" depart="210.00" departLane="bottom1B0_0" departPos="5.10" departSpeed="0.00" departDelay="0.00" arrival="399.00" arrivalLane="A3left3_0" arrivalPos="286.40" arrivalSpeed="14.16" duration="189.00" routeLength="1795.52" waitingTime="33.00" waitingCount="4" stopTime="0.00" timeLoss="66.96" rerouteNo="0" devices="tripinfo_48" vType="DEFAULT_VEHTYPE" speedFactor="1.07" vaporized=""/>
    <tripinfo id="32" depart="155.00" departLane="top3D3_0" departPos="5.10" departSpeed="0.00" departDelay="0.00" arrival="402.00" arrivalLane="A0bottom0_0" arrivalPos="286.40" arrivalSpeed="14.04" duration="247.00" routeLength="2382.93" waitingTime="47.00" waitingCount="4" stopTime="0.00" timeLoss="82.55" rerouteNo="0" devices="tripinfo_32" vType="DEFAULT_VEHTYPE" speedFactor="1.05" vaporized=""/>
    <tripinfo id="56" depart="253.00" departLane="bottom0A0_0" departPos="5.10" departSpeed="0.00" departDelay="0.00" arrival="405.00" arrivalLane="D0bottom3_0" arrivalPos="286.40" arrivalSpeed="13.84" duration="152.00" routeLength="1461.60" waitingTime="21.00" waitingCount="4" stopTime="0.00" timeLoss="48.12" rerouteNo="0" devices="tripinfo_56" vType="DEFAULT_VEHTYPE" speedFactor="1.02" vaporized=""/>
    <tripinfo id="51" depart="241.00" departLane="bottom1B0_0" departPos="5.10" departSpeed="0.00" departDelay="0.00" arrival="409.00" arrivalLane="A2left2_0" arrivalPos="286.40" arrivalSpeed="13.85" duration="168.00" routeLength="1495.35" waitingTime="42.00" waitingCount="2" stopTime="0.00" timeLoss="63.69" rerouteNo="0" devices="tripinfo_51" vType="DEFAULT_VEHTYPE" speedFactor="1.04" vaporized=""/>
    <tripinfo id="47" depart="207.00" departLane="right3D3_0" departPos="5.10" departSpeed="0.00" departDelay="0.00" arrival="414.00" arrivalLane="D0right0_0" arrivalPos="286.40" arrivalSpeed="11.50" duration="207.00" routeLength="1497.83" waitingTime="50.00" waitingCount="4" stopTime="0.00" timeLoss="77.60" rerouteNo="0" devices="tripinfo_47" vType="DEFAULT_VEHTYPE" speedFactor="0.85" vaporized=""/>
    <tripinfo id="62" depart="274.00" departLane="top3D3_0" departPos="5.10" departSpeed="0.00" departDelay="0.00" arrival="414.00" arrivalLane="A3top0_0" arrivalPos="286.40" arrivalSpeed="12.24" duration="140.00" routeLength="1461.60" waitingTime="7.00" waitingCount="1" stopTime="0.00" timeLoss="30.46" rerouteNo="0" devices="tripinfo_62" vType="DEFAULT_VEHTYPE" speedFactor="0.97" vaporized=""/>
    <tripinfo id="55" depart="251.00" departLane="right1D1_0" departPos="5.10" departSpeed="0.00" departDelay="0.00" arrival="416.00" arrivalLane="B0bottom1_0" arrivalPos="286.40" arrivalSpeed="15.04" duration="165.00" routeLength="1495.35" waitingTime="36.00" waitingCount="4" stopTime="0.00" timeLoss="69.92" rerouteNo="0" devices="tripinfo_55" vType="DEFAULT_VEHTYPE" speedFactor="1.14" vaporized=""/>
    <tripinfo id="64" depart="282.00" departLane="left1A1_0" departPos="5.10" departSpeed="0.00" departDelay="0.00" arrival="425.00" arrivalLane="A1left1_0" arrivalPos="286.40" arrivalSpeed="15.05" duration="143.00" routeLength="1748.75" waitingTime="6.00" waitingCount="2" stopTime="0.00" timeLoss="30.14" rerouteNo="0" devices="tripinfo_64" vType="DEFAULT_VEHTYPE" speedFactor="1.14" vaporized=""/>
    <tripinfo id="59" depart="257.00" departLane="bottom0A0_0" departPos="5.10" departSpeed="0.00" departDelay="0.00" arrival="426.00" arrivalLane="A2left2_0" arrivalPos="286.40" arrivalSpeed="10.50" duration="169.00" routeLength="1197.89" waitingTime="38.00" waitingCount="3" stopTime="0.00" timeLoss="58.21" rerouteNo="0" devices="tripinfo_59" vType="DEFAULT_VEHTYPE" speedFactor="0.79" vaporized=""/>
    <tripinfo id="65" depart="292.00" departLane="right1D1_0" departPos="5.10" departSpeed="0.00" departDelay="0.00" arrival="432.00" arrivalLane="D3top3_0" arrivalPos="286.40" arrivalSpeed="12.19" duration="140.00" routeLength="1179.77" waitingTime="22.00" waitingCount="3" stopTime="0.00" timeLoss="45.13" rerouteNo="0" devices="tripinfo_65" vType="DEFAULT_VEHTYPE" speedFactor="0.91" vaporized=""/>
    <tripinfo id="37" depart="179.00" departLane="right3D3_0" departPos="5.10" departSpeed="0.00" departDelay="0.00" arrival="438.00" arrivalLane="A0left0_0" arrivalPos="286.40" arrivalSpeed="14.63" duration="259.00" routeLength="2380.22" waitingTime="55.00" waitingCount="5" stopTime="0.00" timeLoss="96.88" rerouteNo="0" devices="tripinfo_37" vType="DEFAULT_VEHTYPE" speedFactor="1.06" vaporized=""/>
    <tripinfo id="61" depart="262.00" departLane="bottom2C0_0" departPos="5.10" departSpeed="0.00" departDelay="0.00" arrival="441.00" arrivalLane="D3right3_0" arrivalPos="286.40" arrivalSpeed="12.48" duration="179.00" routeLength="1780.11" waitingTime="13.00" waitingCount="2" stopTime="0.00" timeLoss="40.80" rerouteNo="0" devices="tripinfo_61" vType="DEFAULT_VEHTYPE" speedFactor="0.93" vaporized=""/>
    <tripinfo id="70" depart="350.00" departLane="right1D1_0" departPos="5.10" departSpeed="0.00" departDelay="0.00" arrival="463.00" arrivalLane="D0bottom3_0" arrivalPos="286.40" arrivalSpeed="12.12" duration="113.00" routeLength="895.01" waitingTime="35.00" waitingCount="1" stopTime="0.00" timeLoss="45.68" rerouteNo="0" devices="tripinfo_70" vType="DEFAULT_VEHTYPE" speedFactor="0.97" vaporized=""/>
    <tripinfo id="40" depart="186.00" departLane="left1A1_0" departPos="5.10" departSpeed="0.00" departDelay="0.00" arrival="464.00" arrivalLane="D3right3_0" arrivalPos="286.40" arrivalSpeed="12.95" duration="278.00" routeLength="2080.05" waitingTime="91.00" waitingCount="3" stopTime="0.00" timeLoss="124.04" rerouteNo="0" devices="tripinfo_40" vType="DEFAULT_VEHTYPE" speedFactor="0.98" vaporized=""/>
    <tripinfo id="76" depart="375.00" departLane="left2A2_0" departPos="5.10" departSpeed="0.00" departDelay="0.00" arrival="499.00" arrivalLane="A3left3_0" arrivalPos="286.40" arrivalSpeed="13.75" duration="124.00" routeLength="894.86" waitingTime="44.00" waitingCount="2" stopTime="0.00" timeLoss="59.35" rerouteNo="0" devices="tripinfo_76" vType="DEFAULT_VEHTYPE" speedFactor="1.01" vaporized=""/>
    <tripinfo id="75" depart="360.00" departLane="right1D1_0" departPos="5.10" departSpeed="0.00" departDelay="0.00" arrival="500.00" arrivalLane="D3top3_0" arrivalPos="286.40" arrivalSpeed="13.73" duration="140.00" routeLength="1179.77" waitingTime="30.00" waitingCount="3" stopTime="0.00" timeLoss="52.94" rerouteNo="0" devices="tripinfo_75" vType="DEFAULT_VEHTYPE" speedFactor="0.99" vaporized=""/>
    <tripinfo id="92" depart="422.00" departLane="bottom1B0_0" departPos="5.10" departSpeed="0.00" departDelay="0.00" arrival="504.00" arrivalLane="C0bottom2_0" arrivalPos="286.40" arrivalSpeed="13.22" duration="82.00" routeLength="858.56" waitingTime="2.00" waitingCount="2" stopTime="0.00" timeLoss="20.28" rerouteNo="0" devices="tripinfo_92" vType="DEFAULT_VEHTYPE" speedFactor="1.02" vaporized=""/>
    <tripinfo id="85" depart="397.00" departLane="bottom0A0_0" departPos="5.10" departSpeed="0.00" departDelay="0.00" arrival="510.00" arrivalLane="C0bottom2_0" arrivalPos="286.40" arrivalSpeed="14.58" duration="113.00" routeLength="1161.43" waitingTime="6.00" waitingCount="3" stopTime="0.00" timeLoss="31.96" rerouteNo="0" devices="tripinfo_85" vType="DEFAULT_VEHTYPE" speedFactor="1.05" vaporized=""/>
    <tripinfo id="84" depart="394.00" departLane="bottom2C0_0" departPos="5.10" departSpeed="0.00" departDelay="0.00" arrival="512.00" arrivalLane="A0bottom0_0" arrivalPos="286.40" arrivalSpeed="12.44" duration="118.00" routeLength="1197.66" waitingTime="9.00" waitingCount="1" stopTime="0.00" timeLoss="22.59" rerouteNo="0" devices="tripinfo_84" vType="DEFAULT_VEHTYPE" speedFactor="0.92" vaporized=""/>
    <tripinfo id="52" depart="242.00" departLane="bottom2C0_0" departPos="5.10" departSpeed="0.00" departDelay="0.00" arrival="518.00" arrivalLane="A2left2_0" arrivalPos="286.40" arrivalSpeed="14.55" duration="276.00" routeLength="1795.52" waitingTime="120.00" waitingCount="4" stopTime="0.00" timeLoss="152.20" rerouteNo="0" devices="tripinfo_52" vType="DEFAULT_VEHTYPE" speedFactor="1.05" vaporized=""/>