<?xml version="1.0" encoding="UTF-8"?>

<!-- generated on 12/19/21 17:56:11 by Eclipse SUMO sumo Version 1.7.0
<configuration xmlns:xsi="http://www.w3.org/2001/XMLSchema-instance" xsi:noNamespaceSchemaLocation="http://sumo.dlr.de/xsd/sumoConfiguration.xsd">

    <input>
        <net-file value="C:\Users\longs\Desktop\RESCO-main\environments\grid4x4\grid4x4.net.xml"/>
        <route-files value="C:\Users\longs\Desktop\RESCO-main\environments\grid4x4\grid4x4_35.rou.xml"/>
    </input>

    <output>
        <tripinfo-output value="C:\Users\longs\Desktop\RESCO-main\logs\IDQN-tr1-grid4x4-0-drqlong-delaydiff_pressure09\tripinfo_35.xml"/>
        <tripinfo-output.write-unfinished value="true"/>
    </output>

    <processing>
        <time-to-teleport value="-1"/>
    </processing>

    <report>
        <no-warnings value="true"/>
        <no-step-log value="true"/>
    </report>

    <traci_server>
        <remote-port value="58138"/>
    </traci_server>

    <random_number>
        <random value="true"/>
    </random_number>

</configuration>
-->

<tripinfos xmlns:xsi="http://www.w3.org/2001/XMLSchema-instance" xsi:noNamespaceSchemaLocation="http://sumo.dlr.de/xsd/tripinfo_file.xsd">
    <tripinfo id="11" depart="38.00" departLane="bottom3D0_0" departPos="5.10" departSpeed="0.00" departDelay="0.00" arrival="94.00" arrivalLane="D0right0_0" arrivalPos="286.40" arrivalSpeed="12.63" duration="56.00" routeLength="576.73" waitingTime="1.00" waitingCount="1" stopTime="0.00" timeLoss="9.56" rerouteNo="0" devices="tripinfo_11" vType="DEFAULT_VEHTYPE" speedFactor="0.92" vaporized=""/>
    <tripinfo id="8" depart="22.00" departLane="left2A2_0" departPos="5.10" departSpeed="0.00" departDelay="0.00" arrival="101.00" arrivalLane="A1left1_0" arrivalPos="286.40" arrivalSpeed="14.03" duration="79.00" routeLength="858.56" waitingTime="2.00" waitingCount="2" stopTime="0.00" timeLoss="18.91" rerouteNo="0" devices="tripinfo_8" vType="DEFAULT_VEHTYPE" speedFactor="1.05" vaporized=""/>
    <tripinfo id="4" depart="14.00" departLane="bottom1B0_0" departPos="5.10" departSpeed="0.00" departDelay="2.00" arrival="106.00" arrivalLane="D0bottom3_0" arrivalPos="286.40" arrivalSpeed="15.11" duration="92.00" routeLength="1161.43" waitingTime="1.00" waitingCount="1" stopTime="0.00" timeLoss="16.57" rerouteNo="0" devices="tripinfo_4" vType="DEFAULT_VEHTYPE" speedFactor="1.12" vaporized=""/>
    <tripinfo id="12" depart="47.00" departLane="left2A2_0" departPos="5.10" departSpeed="0.00" departDelay="0.00" arrival="164.00" arrivalLane="A0left0_0" arrivalPos="286.40" arrivalSpeed="14.12" duration="117.00" routeLength="1161.43" waitingTime="20.00" waitingCount="2" stopTime="0.00" timeLoss="38.35" rerouteNo="0" devices="tripinfo_12" vType="DEFAULT_VEHTYPE" speedFactor="1.08" vaporized=""/>
    <tripinfo id="0" depart="3.00" departLane="bottom3D0_0" departPos="5.10" departSpeed="0.00" departDelay="0.00" arrival="166.00" arrivalLane="A0left0_0" arrivalPos="286.40" arrivalSpeed="15.62" duration="163.00" routeLength="1495.35" waitingTime="43.00" waitingCount="3" stopTime="0.00" timeLoss="70.43" rerouteNo="0" devices="tripinfo_0" vType="DEFAULT_VEHTYPE" speedFactor="1.17" vaporized=""/>
    <tripinfo id="16" depart="80.00" departLane="bottom1B0_0" departPos="5.10" departSpeed="0.00" departDelay="0.00" arrival="168.00" arrivalLane="A0bottom0_0" arrivalPos="286.40" arrivalSpeed="13.87" duration="88.00" routeLength="894.86" waitingTime="15.00" waitingCount="1" stopTime="0.00" timeLoss="25.93" rerouteNo="0" devices="tripinfo_16" vType="DEFAULT_VEHTYPE" speedFactor="1.05" vaporized=""/>
    <tripinfo id="17" depart="83.00" departLane="bottom0A0_0" departPos="5.10" departSpeed="0.00" departDelay="0.00" arrival="169.00" arrivalLane="C0bottom2_0" arrivalPos="286.40" arrivalSpeed="15.08" duration="86.00" routeLength="1161.43" waitingTime="0.00" waitingCount="0" stopTime="0.00" timeLoss="10.88" rerouteNo="0" devices="tripinfo_17" vType="DEFAULT_VEHTYPE" speedFactor="1.14" vaporized=""/>
    <tripinfo id="1" depart="5.00" departLane="right3D3_0" departPos="5.10" departSpeed="0.00" departDelay="0.00" arrival="186.00" arrivalLane="D0bottom3_0" arrivalPos="286.40" arrivalSpeed="16.45" duration="181.00" routeLength="1495.35" waitingTime="69.00" waitingCount="2" stopTime="0.00" timeLoss="89.57" rerouteNo="0" devices="tripinfo_1" vType="DEFAULT_VEHTYPE" speedFactor="1.19" vaporized=""/>
    <tripinfo id="6" depart="18.00" departLane="left1A1_0" departPos="5.10" departSpeed="0.00" departDelay="0.00" arrival="188.00" arrivalLane="C0bottom2_0" arrivalPos="286.40" arrivalSpeed="13.64" duration="170.00" routeLength="1479.94" waitingTime="38.00" waitingCount="2" stopTime="0.00" timeLoss="65.34" rerouteNo="0" devices="tripinfo_6" vType="DEFAULT_VEHTYPE" speedFactor="1.03" vaporized=""/>
    <tripinfo id="22" depart="97.00" departLane="top2C3_0" departPos="5.10" departSpeed="0.00" departDelay="0.00" arrival="192.00" arrivalLane="B3top1_0" arrivalPos="286.40" arrivalSpeed="10.49" duration="95.00" routeLength="858.56" waitingTime="2.00" waitingCount="2" stopTime="0.00" timeLoss="18.90" rerouteNo="0" devices="tripinfo_22" vType="DEFAULT_VEHTYPE" speedFactor="0.83" vaporized=""/>
    <tripinfo id="19" depart="92.00" departLane="bottom3D0_0" departPos="5.10" departSpeed="0.00" departDelay="0.00" arrival="207.00" arrivalLane="A0bottom0_0" arrivalPos="286.40" arrivalSpeed="15.35" duration="115.00" routeLength="1497.83" waitingTime="5.00" waitingCount="1" stopTime="0.00" timeLoss="18.60" rerouteNo="0" devices="tripinfo_19" vType="DEFAULT_VEHTYPE" speedFactor="1.13" vaporized=""/>
    <tripinfo id="20" depart="95.00" departLane="left1A1_0" departPos="5.10" departSpeed="0.00" departDelay="0.00" arrival="211.00" arrivalLane="A2left2_0" arrivalPos="286.40" arrivalSpeed="12.34" duration="116.00" routeLength="894.86" waitingTime="30.00" waitingCount="2" stopTime="0.00" timeLoss="47.51" rerouteNo="0" devices="tripinfo_20" vType="DEFAULT_VEHTYPE" speedFactor="0.96" vaporized=""/>
    <tripinfo id="2" depart="6.00" departLane="bottom2C0_0" departPos="5.10" departSpeed="0.00" departDelay="0.00" arrival="219.00" arrivalLane="C0bottom2_0" arrivalPos="286.40" arrivalSpeed="12.60" duration="213.00" routeLength="1748.75" waitingTime="53.00" waitingCount="3" stopTime="0.00" timeLoss="83.95" rerouteNo="0" devices="tripinfo_2" vType="DEFAULT_VEHTYPE" speedFactor="0.99" vaporized=""/>
    <tripinfo id="7" depart="21.00" departLane="left3A3_0" departPos="5.10" departSpeed="0.00" departDelay="0.00" arrival="219.00" arrivalLane="A3left3_0" arrivalPos="286.40" arrivalSpeed="14.79" duration="198.00" routeLength="1748.75" waitingTime="59.00" waitingCount="3" stopTime="0.00" timeLoss="84.82" rerouteNo="0" devices="tripinfo_7" vType="DEFAULT_VEHTYPE" speedFactor="1.14" vaporized=""/>
    <tripinfo id="36" depart="152.00" departLane="right0D0_0" departPos="5.10" departSpeed="0.00" departDelay="2.00" arrival="224.00" arrivalLane="D1right1_0" arrivalPos="286.40" arrivalSpeed="15.45" duration="72.00" routeLength="858.56" waitingTime="1.00" waitingCount="1" stopTime="0.00" timeLoss="15.08" rerouteNo="0" devices="tripinfo_36" vType="DEFAULT_VEHTYPE" speedFactor="1.13" vaporized=""/>
    <tripinfo id="13" depart="52.00" departLane="right2D2_0" departPos="5.10" departSpeed="0.00" departDelay="0.00" arrival="240.00" arrivalLane="A1left1_0" arrivalPos="286.40" arrivalSpeed="13.72" duration="188.00" routeLength="1782.59" waitingTime="28.00" waitingCount="4" stopTime="0.00" timeLoss="56.72" rerouteNo="0" devices="tripinfo_13" vType="DEFAULT_VEHTYPE" speedFactor="0.99" vaporized=""/>
    <tripinfo id="47" depart="189.00" departLane="bottom3D0_0" departPos="5.10" departSpeed="0.00" departDelay="0.00" arrival="249.00" arrivalLane="D0right0_0" arrivalPos="286.40" arrivalSpeed="10.88" duration="60.00" routeLength="576.73" waitingTime="0.00" waitingCount="0" stopTime="0.00" timeLoss="7.12" rerouteNo="0" devices="tripinfo_47" vType="DEFAULT_VEHTYPE" speedFactor="0.81" vaporized=""/>
    <tripinfo id="24" depart="98.00" departLane="left1A1_0" departPos="5.10" departSpeed="0.00" departDelay="0.00" arrival="251.00" arrivalLane="A3top0_0" arrivalPos="286.40" arrivalSpeed="11.93" duration="153.00" routeLength="1195.18" waitingTime="36.00" waitingCount="3" stopTime="0.00" timeLoss="60.33" rerouteNo="0" devices="tripinfo_24" vType="DEFAULT_VEHTYPE" speedFactor="0.94" vaporized=""/>
    <tripinfo id="35" depart="149.00" departLane="right0D0_0" departPos="5.10" departSpeed="0.00" departDelay="0.00" arrival="251.00" arrivalLane="B0bottom1_0" arrivalPos="286.40" arrivalSpeed="11.90" duration="102.00" routeLength="1197.89" waitingTime="0.00" waitingCount="0" stopTime="0.00" timeLoss="8.82" rerouteNo="0" devices="tripinfo_35" vType="DEFAULT_VEHTYPE" speedFactor="0.93" vaporized=""/>
    <tripinfo id="21" depart="96.00" departLane="bottom0A0_0" departPos="5.10" departSpeed="0.00" departDelay="0.00" arrival="258.00" arrivalLane="D1right1_0" arrivalPos="286.40" arrivalSpeed="13.98" duration="162.00" routeLength="1780.11" waitingTime="11.00" waitingCount="3" stopTime="0.00" timeLoss="39.10" rerouteNo="0" devices="tripinfo_21" vType="DEFAULT_VEHTYPE" speedFactor="1.05" vaporized=""/>
    <tripinfo id="32" depart="130.00" departLane="right1D1_0" departPos="5.10" departSpeed="0.00" departDelay="0.00" arrival="263.00" arrivalLane="D3right3_0" arrivalPos="286.40" arrivalSpeed="15.29" duration="133.00" routeLength="1161.43" waitingTime="32.00" waitingCount="3" stopTime="0.00" timeLoss="60.02" rerouteNo="0" devices="tripinfo_32" vType="DEFAULT_VEHTYPE" speedFactor="1.16" vaporized=""/>
    <tripinfo id="38" depart="156.00" departLane="bottom3D0_0" departPos="5.10" departSpeed="0.00" departDelay="0.00" arrival="271.00" arrivalLane="D1right1_0" arrivalPos="286.40" arrivalSpeed="12.15" duration="115.00" routeLength="876.90" waitingTime="30.00" waitingCount="2" stopTime="0.00" timeLoss="47.64" rerouteNo="0" devices="tripinfo_38" vType="DEFAULT_VEHTYPE" speedFactor="0.95" vaporized=""/>
    <tripinfo id="25" depart="101.00" departLane="bottom2C0_0" departPos="5.10" departSpeed="0.00" departDelay="0.00" arrival="272.00" arrivalLane="A0left0_0" arrivalPos="286.40" arrivalSpeed="13.28" duration="171.00" routeLength="1195.18" waitingTime="65.00" waitingCount="2" stopTime="0.00" timeLoss="83.12" rerouteNo="0" devices="tripinfo_25" vType="DEFAULT_VEHTYPE" speedFactor="0.99" vaporized=""/>
    <tripinfo id="5" depart="14.00" departLane="left0A0_0" departPos="5.10" departSpeed="0.00" departDelay="0.00" arrival="279.00" arrivalLane="D3right3_0" arrivalPos="286.40" arrivalSpeed="13.44" duration="265.00" routeLength="2380.22" waitingTime="46.00" waitingCount="5" stopTime="0.00" timeLoss="98.63" rerouteNo="0" devices="tripinfo_5" vType="DEFAULT_VEHTYPE" speedFactor="1.04" vaporized=""/>
    <tripinfo id="27" depart="104.00" departLane="bottom2C0_0" departPos="5.10" departSpeed="0.00" departDelay="0.00" arrival="279.00" arrivalLane="A0bottom0_0" arrivalPos="286.40" arrivalSpeed="13.37" duration="175.00" routeLength="1197.66" waitingTime="64.00" waitingCount="2" stopTime="0.00" timeLoss="88.84" rerouteNo="0" devices="tripinfo_27" vType="DEFAULT_VEHTYPE" speedFactor="1.02" vaporized=""/>
    <tripinfo id="15" depart="73.00" departLane="top3D3_0" departPos="5.10" departSpeed="0.00" departDelay="1.00" arrival="280.00" arrivalLane="D3top3_0" arrivalPos="286.40" arrivalSpeed="12.88" duration="207.00" routeLength="1748.75" waitingTime="44.00" waitingCount="4" stopTime="0.00" timeLoss="78.49" rerouteNo="0" devices="tripinfo_15" vType="DEFAULT_VEHTYPE" speedFactor="1.00" vaporized=""/>
    <tripinfo id="43" depart="178.00" departLane="top1B3_0" departPos="5.10" departSpeed="0.00" departDelay="0.00" arrival="281.00" arrivalLane="A3left3_0" arrivalPos="286.40" arrivalSpeed="11.96" duration="103.00" routeLength="879.60" waitingTime="20.00" waitingCount="1" stopTime="0.00" timeLoss="31.99" rerouteNo="0" devices="tripinfo_43" vType="DEFAULT_VEHTYPE" speedFactor="0.91" vaporized=""/>
    <tripinfo id="3" depart="11.00" departLane="bottom1B0_0" departPos="5.10" departSpeed="0.00" departDelay="0.00" arrival="283.00" arrivalLane="D3top3_0" arrivalPos="286.40" arrivalSpeed="12.91" duration="272.00" routeLength="2082.76" waitingTime="77.00" waitingCount="5" stopTime="0.00" timeLoss="116.91" rerouteNo="0" devices="tripinfo_3" vType="DEFAULT_VEHTYPE" speedFactor="0.98" vaporized=""/>
    <tripinfo id="28" depart="107.00" departLane="bottom2C0_0" departPos="5.10" departSpeed="0.00" departDelay="3.00" arrival="284.00" arrivalLane="A0bottom0_0" arrivalPos="286.40" arrivalSpeed="12.29" duration="177.00" routeLength="1197.66" waitingTime="58.00" waitingCount="2" stopTime="0.00" timeLoss="79.13" rerouteNo="0" devices="tripinfo_28" vType="DEFAULT_VEHTYPE" speedFactor="0.90" vaporized=""/>
    <tripinfo id="34" depart="147.00" departLane="top1B3_0" departPos="5.10" departSpeed="0.00" departDelay="0.00" arrival="289.00" arrivalLane="D3top3_0" arrivalPos="286.40" arrivalSpeed="10.73" duration="142.00" routeLength="1197.66" waitingTime="13.00" waitingCount="2" stopTime="0.00" timeLoss="34.82" rerouteNo="0" devices="tripinfo_34" vType="DEFAULT_VEHTYPE" speedFactor="0.82" vaporized=""/>
    <tripinfo id="49" depart="199.00" departLane="bottom1B0_0" departPos="5.10" departSpeed="0.00" departDelay="0.00" arrival="289.00" arrivalLane="C0bottom2_0" arrivalPos="286.40" arrivalSpeed="12.35" duration="90.00" routeLength="858.56" waitingTime="2.00" waitingCount="2" stopTime="0.00" timeLoss="20.87" rerouteNo="0" devices="tripinfo_49" vType="DEFAULT_VEHTYPE" speedFactor="0.91" vaporized=""/>
    <tripinfo id="14" depart="70.00" departLane="top3D3_0" departPos="5.10" departSpeed="0.00" departDelay="0.00" arrival="290.00" arrivalLane="C0bottom2_1" arrivalPos="286.40" arrivalSpeed="12.20" duration="220.00" routeLength="1782.72" waitingTime="48.00" waitingCount="5" stopTime="0.00" timeLoss="85.57" rerouteNo="0" devices="tripinfo_14" vType="DEFAULT_VEHTYPE" speedFactor="0.96" vaporized=""/>
    <tripinfo id="52" depart="209.00" departLane="left2A2_0" departPos="5.10" departSpeed="0.00" departDelay="0.00" arrival="294.00" arrivalLane="A1left1_0" arrivalPos="286.40" arrivalSpeed="13.67" duration="85.00" routeLength="858.56" waitingTime="4.00" waitingCount="2" stopTime="0.00" timeLoss="25.35" rerouteNo="0" devices="tripinfo_52" vType="DEFAULT_VEHTYPE" speedFactor="1.07" vaporized=""/>
    <tripinfo id="29" depart="105.00" departLane="top0A3_0" departPos="5.10" departSpeed="0.00" departDelay="0.00" arrival="299.00" arrivalLane="A3top0_0" arrivalPos="286.40" arrivalSpeed="12.83" duration="194.00" routeLength="1745.91" waitingTime="28.00" waitingCount="5" stopTime="0.00" timeLoss="63.58" rerouteNo="0" devices="tripinfo_29" vType="DEFAULT_VEHTYPE" speedFactor="0.98" vaporized=""/>
    <tripinfo id="10" depart="31.00" departLane="bottom0A0_0" departPos="5.10" departSpeed="0.00" departDelay="0.00" arrival="301.00" arrivalLane="C3top2_0" arrivalPos="286.40" arrivalSpeed="12.50" duration="270.00" routeLength="2082.76" waitingTime="68.00" waitingCount="5" stopTime="0.00" timeLoss="109.56" rerouteNo="0" devices="tripinfo_10" vType="DEFAULT_VEHTYPE" speedFactor="0.94" vaporized=""/>
    <tripinfo id="39" depart="167.00" departLane="left3A3_0" departPos="5.10" departSpeed="0.00" departDelay="0.00" arrival="302.00" arrivalLane="C3top2_1" arrivalPos="286.40" arrivalSpeed="13.58" duration="135.00" routeLength="1197.89" waitingTime="27.00" waitingCount="2" stopTime="0.00" timeLoss="49.29" rerouteNo="0" devices="tripinfo_39" vType="DEFAULT_VEHTYPE" speedFactor="1.02" vaporized=""/>
    <tripinfo id="31" depart="125.00" departLane="top0A3_0" departPos="5.10" departSpeed="0.00" departDelay="0.00" arrival="304.00" arrivalLane="A0left0_0" arrivalPos="286.40" arrivalSpeed="14.19" duration="179.00" routeLength="1477.24" waitingTime="52.00" waitingCount="2" stopTime="0.00" timeLoss="74.08" rerouteNo="0" devices="tripinfo_31" vType="DEFAULT_VEHTYPE" speedFactor="1.03" vaporized=""/>
    <tripinfo id="40" depart="170.00" departLane="right1D1_0" departPos="5.10" departSpeed="0.00" departDelay="0.00" arrival="308.00" arrivalLane="D0bottom3_0" arrivalPos="286.40" arrivalSpeed="13.94" duration="138.00" routeLength="895.01" waitingTime="59.00" waitingCount="2" stopTime="0.00" timeLoss="75.12" rerouteNo="0" devices="tripinfo_40" vType="DEFAULT_VEHTYPE" speedFactor="1.03" vaporized=""/>
    <tripinfo id="33" depart="139.00" departLane="bottom0A0_0" departPos="5.10" departSpeed="0.00" departDelay="0.00" arrival="311.00" arrivalLane="A0bottom0_0" arrivalPos="286.40" arrivalSpeed="11.77" duration="172.00" routeLength="1748.75" waitingTime="8.00" waitingCount="3" stopTime="0.00" timeLoss="34.22" rerouteNo="0" devices="tripinfo_33" vType="DEFAULT_VEHTYPE" speedFactor="0.93" vaporized=""/>
    <tripinfo id="30" depart="124.00" departLane="bottom2C0_0" departPos="5.10" departSpeed="0.00" departDelay="0.00" arrival="312.00" arrivalLane="A0left0_0" arrivalPos="286.40" arrivalSpeed="13.22" duration="188.00" routeLength="1195.18" waitingTime="73.00" waitingCount="3" stopTime="0.00" timeLoss="101.64" rerouteNo="0" devices="tripinfo_30" vType="DEFAULT_VEHTYPE" speedFactor="1.01" vaporized=""/>
    <tripinfo id="37" depart="155.00" departLane="right3D3_0" departPos="5.10" departSpeed="0.00" departDelay="0.00" arrival="317.00" arrivalLane="D0bottom3_0" arrivalPos="286.40" arrivalSpeed="14.60" duration="162.00" routeLength="1495.35" waitingTime="45.00" waitingCount="2" stopTime="0.00" timeLoss="66.01" rerouteNo="0" devices="tripinfo_37" vType="DEFAULT_VEHTYPE" speedFactor="1.14" vaporized=""/>
    <tripinfo id="18" depart="91.00" departLane="left3A3_0" departPos="5.10" departSpeed="0.00" departDelay="0.00" arrival="318.00" arrivalLane="D3top3_0" arrivalPos="286.40" arrivalSpeed="13.59" duration="227.00" routeLength="1498.06" waitingTime="100.00" waitingCount="3" stopTime="0.00" timeLoss="124.71" rerouteNo="0" devices="tripinfo_18" vType="DEFAULT_VEHTYPE" speedFactor="1.06" vaporized=""/>
    <tripinfo id="23" depart="97.00" departLane="right1D1_0" departPos="5.10" departSpeed="0.00" departDelay="0.00" arrival="321.00" arrivalLane="A0bottom0_0" arrivalPos="286.40" arrivalSpeed="12.64" duration="224.00" routeLength="1795.52" waitingTime="48.00" waitingCount="4" stopTime="0.00" timeLoss="83.39" rerouteNo="0" devices="tripinfo_23" vType="DEFAULT_VEHTYPE" speedFactor="0.92" vaporized=""/>
    <tripinfo id="50" depart="205.00" departLane="left2A2_0" departPos="5.10" departSpeed="0.00" departDelay="0.00" arrival="324.00" arrivalLane="A0left0_0" arrivalPos="286.40" arrivalSpeed="13.39" duration="119.00" routeLength="1161.43" waitingTime="12.00" waitingCount="2" stopTime="0.00" timeLoss="33.03" rerouteNo="0" devices="tripinfo_50" vType="DEFAULT_VEHTYPE" speedFactor="0.99" vaporized=""/>
    <tripinfo id="41" depart="173.00" departLane="bottom0A0_0" departPos="5.10" departSpeed="0.00" departDelay="0.00" arrival="339.00" arrivalLane="A0bottom0_0" arrivalPos="286.40" arrivalSpeed="13.99" duration="166.00" routeLength="1748.75" waitingTime="16.00" waitingCount="3" stopTime="0.00" timeLoss="44.60" rerouteNo="0" devices="tripinfo_41" vType="DEFAULT_VEHTYPE" speedFactor="1.06" vaporized=""/>
    <tripinfo id="59" depart="238.00" departLane="bottom3D0_0" departPos="5.10" departSpeed="0.00" departDelay="0.00" arrival="351.00" arrivalLane="B0bottom1_0" arrivalPos="286.40" arrivalSpeed="14.09" duration="113.00" routeLength="1197.66" waitingTime="17.00" waitingCount="1" stopTime="0.00" timeLoss="29.06" rerouteNo="0" devices="tripinfo_59" vType="DEFAULT_VEHTYPE" speedFactor="1.05" vaporized=""/>
    <tripinfo id="48" depart="193.00" departLane="bottom0A0_0" departPos="5.10" departSpeed="0.00" departDelay="0.00" arrival="354.00" arrivalLane="A3top0_0" arrivalPos="286.40" arrivalSpeed="13.70" duration="161.00" routeLength="1495.58" waitingTime="36.00" waitingCount="2" stopTime="0.00" timeLoss="57.26" rerouteNo="0" devices="tripinfo_48" vType="DEFAULT_VEHTYPE" speedFactor="1.04" vaporized=""/>
    <tripinfo id="9" depart="23.00" departLane="right0D0_0" departPos="5.10" departSpeed="0.00" departDelay="0.00" arrival="356.00" arrivalLane="A3left3_0" arrivalPos="286.40" arrivalSpeed="13.06" duration="333.00" routeLength="2382.93" waitingTime="109.00" waitingCount="4" stopTime="0.00" timeLoss="148.49" rerouteNo="0" devices="tripinfo_9" vType="DEFAULT_VEHTYPE" speedFactor="0.94" vaporized=""/>
    <tripinfo id="61" depart="242.00" departLane="top0A3_0" departPos="5.10" departSpeed="0.00" departDelay="0.00" arrival="360.00" arrivalLane="A1left1_0" arrivalPos="286.40" arrivalSpeed="13.05" duration="118.00" routeLength="1177.07" waitingTime="14.00" waitingCount="2" stopTime="0.00" timeLoss="32.93" rerouteNo="0" devices="tripinfo_61" vType="DEFAULT_VEHTYPE" speedFactor="1.01" vaporized=""/>
    <tripinfo id="26" depart="101.00" departLane="right0D0_0" departPos="5.10" departSpeed="0.00" departDelay="0.00" arrival="367.00" arrivalLane="A3left3_0" arrivalPos="286.40" arrivalSpeed="14.93" duration="266.00" routeLength="2382.93" waitingTime="62.00" waitingCount="5" stopTime="0.00" timeLoss="110.85" rerouteNo="0" devices="tripinfo_26" vType="DEFAULT_VEHTYPE" speedFactor="1.11" vaporized=""/>
    <tripinfo id="65" depart="266.00" departLane="left2A2_0" departPos="5.10" departSpeed="0.00" departDelay="0.00" arrival="374.00" arrivalLane="A3top0_0" arrivalPos="286.40" arrivalSpeed="15.64" duration="108.00" routeLength="895.01" waitingTime="41.00" waitingCount="1" stopTime="0.00" timeLoss="54.13" rerouteNo="0" devices="tripinfo_65" vType="DEFAULT_VEHTYPE" speedFactor="1.21" vaporized=""/>
    <tripinfo id="55" depart="218.00" departLane="bottom1B0_0" departPos="5.10" departSpeed="0.00" departDelay="0.00" arrival="377.00" arrivalLane="D1right1_0" arrivalPos="286.40" arrivalSpeed="15.07" duration="159.00" routeLength="1479.94" waitingTime="37.00" waitingCount="3" stopTime="0.00" timeLoss="62.07" rerouteNo="0" devices="tripinfo_55" vType="DEFAULT_VEHTYPE" speedFactor="1.10" vaporized=""/>
    <tripinfo id="63" depart="245.00" departLane="right0D0_0" departPos="5.10" departSpeed="0.00" departDelay="0.00" arrival="377.00" arrivalLane="D2right2_0" arrivalPos="286.40" arrivalSpeed="12.15" duration="132.00" routeLength="1161.43" waitingTime="20.00" waitingCount="2" stopTime="0.00" timeLoss="39.17" rerouteNo="0" devices="tripinfo_63" vType="DEFAULT_VEHTYPE" speedFactor="0.92" vaporized=""/>
    <tripinfo id="80" depart="327.00" departLane="right0D0_0" departPos="5.10" departSpeed="0.00" departDelay="0.00" arrival="378.00" arrivalLane="D0bottom3_0" arrivalPos="286.40" arrivalSpeed="13.68" duration="51.00" routeLength="597.55" waitingTime="0.00" waitingCount="0" stopTime="0.00" timeLoss="8.48" rerouteNo="0" devices="tripinfo_80" vType="DEFAULT_VEHTYPE" speedFactor="1.04" vaporized=""/>
    <tripinfo id="73" depart="309.00" departLane="right2D2_0" departPos="5.10" departSpeed="0.00" departDelay="0.00" arrival="386.00" arrivalLane="D3right3_0" arrivalPos="286.40" arrivalSpeed="14.57" duration="77.00" routeLength="858.56" waitingTime="1.00" waitingCount="1" stopTime="0.00" timeLoss="16.66" rerouteNo="0" devices="tripinfo_73" vType="DEFAULT_VEHTYPE" speedFactor="1.05" vaporized=""/>
    <tripinfo id="44" depart="184.00" departLane="top3D3_0" departPos="5.10" departSpeed="0.00" departDelay="0.00" arrival="388.00" arrivalLane="D0right0_0" arrivalPos="286.40" arrivalSpeed="14.54" duration="204.00" routeLength="1498.06" waitingTime="70.00" waitingCount="4" stopTime="0.00" timeLoss="102.00" rerouteNo="0" devices="tripinfo_44" vType="DEFAULT_VEHTYPE" speedFactor="1.07" vaporized=""/>
    <tripinfo id="42" depart="176.00" departLane="right3D3_0" departPos="5.10" departSpeed="0.00" departDelay="0.00" arrival="391.00" arrivalLane="D0right0_0" arrivalPos="286.40" arrivalSpeed="13.28" duration="215.00" routeLength="1497.83" waitingTime="75.00" waitingCount="4" stopTime="0.00" timeLoss="107.63" rerouteNo="0" devices="tripinfo_42" vType="DEFAULT_VEHTYPE" speedFactor="1.02" vaporized=""/>
    <tripinfo id="60" depart="241.00" departLane="bottom3D0_0" departPos="5.10" departSpeed="0.00" departDelay="1.00" arrival="402.00" arrivalLane="A0left0_0" arrivalPos="286.40" arrivalSpeed="11.46" duration="161.00" routeLength="1495.35" waitingTime="21.00" waitingCount="2" stopTime="0.00" timeLoss="40.94" rerouteNo="0" devices="tripinfo_60" vType="DEFAULT_VEHTYPE" speedFactor="0.90" vaporized=""/>
    <tripinfo id="77" depart="318.00" departLane="top1B3_0" departPos="5.10" departSpeed="0.00" departDelay="0.00" arrival="412.00" arrivalLane="A3left3_0" arrivalPos="286.40" arrivalSpeed="11.54" duration="94.00" routeLength="879.60" waitingTime="9.00" waitingCount="1" stopTime="0.00" timeLoss="21.39" rerouteNo="0" devices="tripinfo_77" vType="DEFAULT_VEHTYPE" speedFactor="0.89" vaporized=""/>
    <tripinfo id="45" depart="185.00" departLane="top2C3_0" departPos="5.10" departSpeed="0.00" departDelay="0.00" arrival="421.00" arrivalLane="D0right0_0" arrivalPos="286.40" arrivalSpeed="12.13" duration="236.00" routeLength="1795.52" waitingTime="60.00" waitingCount="4" stopTime="0.00" timeLoss="100.47" rerouteNo="0" devices="tripinfo_45" vType="DEFAULT_VEHTYPE" speedFactor="0.96" vaporized=""/>
    <tripinfo id="85" depart="344.00" departLane="right2D2_0" departPos="5.10" departSpeed="0.00" departDelay="0.00" arrival="424.00" arrivalLane="D3right3_0" arrivalPos="286.40" arrivalSpeed="13.39" duration="80.00" routeLength="858.56" waitingTime="2.00" waitingCount="2" stopTime="0.00" timeLoss="16.77" rerouteNo="0" devices="tripinfo_85" vType="DEFAULT_VEHTYPE" speedFactor="1.00" vaporized=""/>
    <tripinfo id="58" depart="235.00" departLane="bottom3D0_0" departPos="5.10" departSpeed="0.00" departDelay="0.00" arrival="428.00" arrivalLane="B3top1_0" arrivalPos="286.40" arrivalSpeed="14.19" duration="193.00" routeLength="2080.05" waitingTime="25.00" waitingCount="2" stopTime="0.00" timeLoss="53.39" rerouteNo="0" devices="tripinfo_58" vType="DEFAULT_VEHTYPE" speedFactor="1.09" vaporized=""/>
    <tripinfo id="56" depart="221.00" departLane="right3D3_0" departPos="5.10" departSpeed="0.00" departDelay="0.00" arrival="438.00" arrivalLane="A3left3_0" arrivalPos="286.40" arrivalSpeed="13.11" duration="217.00" routeLength="1495.58" waitingTime="80.00" waitingCount="4" stopTime="0.00" timeLoss="112.70" rerouteNo="0" devices="tripinfo_56" vType="DEFAULT_VEHTYPE" speedFactor="1.03" vaporized=""/>
    <tripinfo id="103" depart="388.00" departLane="bottom3D0_0" departPos="5.10" departSpeed="0.00" departDelay="0.00" arrival="438.00" arrivalLane="D0right0_0" arrivalPos="286.40" arrivalSpeed="12.82" duration="50.00" routeLength="576.73" waitingTime="0.00" waitingCount="0" stopTime="0.00" timeLoss="6.88" rerouteNo="0" devices="tripinfo_103" vType="DEFAULT_VEHTYPE" speedFactor="0.98" vaporized=""/>
    <tripinfo id="46" depart="188.00" departLane="top3D3_0" departPos="5.10" departSpeed="0.00" departDelay="0.00" arrival="446.00" arrivalLane="A0left0_0" arrivalPos="286.40" arrivalSpeed="16.81" duration="258.00" routeLength="2380.45" waitingTime="65.00" waitingCount="5" stopTime="0.00" timeLoss="115.48" rerouteNo="0" devices="tripinfo_46" vType="DEFAULT_VEHTYPE" speedFactor="1.21" vaporized=""/>
    <tripinfo id="106" depart="403.00" departLane="left0A0_0" departPos="5.10" departSpeed="0.00" departDelay="0.00" arrival="456.00" arrivalLane="A0bottom0_0" arrivalPos="286.40" arrivalSpeed="13.53" duration="53.00" routeLength="576.73" waitingTime="1.00" waitingCount="1" stopTime="0.00" timeLoss="12.15" rerouteNo="0" devices="tripinfo_106" vType="DEFAULT_VEHTYPE" speedFactor="1.03" vaporized=""/>
    <tripinfo id="51" depart="206.00" departLane="left0A0_0" departPos="5.10" departSpeed="0.00" departDelay="0.00" arrival="459.00" arrivalLane="C3top2_0" arrivalPos="286.40" arrivalSpeed="14.23" duration="253.00" routeLength="2095.69" waitingTime="77.00" waitingCount="4" stopTime="0.00" timeLoss="111.55" rerouteNo="0" devices="tripinfo_51" vType="DEFAULT_VEHTYPE" speedFactor="1.08" vaporized=""/>
    <tripinfo id="57" depart="230.00" departLane="left2A2_0" departPos="5.10" departSpeed="0.00" departDelay="0.00" arrival="460.00" arrivalLane="C3top2_1" arrivalPos="286.40" arrivalSpeed="14.48" duration="230.00" routeLength="1495.35" waitingTime="107.00" waitingCount="3" stopTime="0.00" timeLoss="131.58" rerouteNo="0" devices="tripinfo_57" vType="DEFAULT_VEHTYPE" speedFactor="1.11" vaporized=""/>
    <tripinfo id="96" depart="376.00" departLane="right0D0_0" departPos="5.10" departSpeed="0.00" departDelay="0.00" arrival="461.00" arrivalLane="D1right1_0" arrivalPos="286.40" arrivalSpeed="12.68" duration="85.00" routeLength="858.56" waitingTime="1.00" waitingCount="1" stopTime="0.00" timeLoss="15.68" rerouteNo="0" devices="tripinfo_96" vType="DEFAULT_VEHTYPE" speedFactor="0.92" vaporized=""/>
    <tripinfo id="72" depart="304.00" departLane="bottom3D0_0" departPos="5.10" departSpeed="0.00" departDelay="0.00" arrival="467.00" arrivalLane="D0bottom3_0" arrivalPos="286.40" arrivalSpeed="13.61" duration="163.00" routeLength="1745.91" waitingTime="13.00" waitingCount="3" stopTime="0.00" timeLoss="43.44" rerouteNo="0" devices="tripinfo_72" vType="DEFAULT_VEHTYPE" speedFactor="1.07" vaporized=""/>
    <tripinfo id="54" depart="217.00" departLane="top2C3_0" departPos="5.10" departSpeed="0.00" departDelay="0.00" arrival="481.00" arrivalLane="D0right0_0" arrivalPos="286.40" arrivalSpeed="12.10" duration="264.00" routeLength="1795.52" waitingTime="80.00" waitingCount="5" stopTime="0.00" timeLoss="117.82" rerouteNo="0" devices="tripinfo_54" vType="DEFAULT_VEHTYPE" speedFactor="0.89" vaporized=""/>