<?xml version="1.0" encoding="UTF-8"?>

<!-- generated on 12/19/21 17:57:22 by Eclipse SUMO sumo Version 1.7.0
<configuration xmlns:xsi="http://www.w3.org/2001/XMLSchema-instance" xsi:noNamespaceSchemaLocation="http://sumo.dlr.de/xsd/sumoConfiguration.xsd">

    <input>
        <net-file value="C:\Users\longs\Desktop\RESCO-main\environments\grid4x4\grid4x4.net.xml"/>
        <route-files value="C:\Users\longs\Desktop\RESCO-main\environments\grid4x4\grid4x4_36.rou.xml"/>
    </input>

    <output>
        <tripinfo-output value="C:\Users\longs\Desktop\RESCO-main\logs\IDQN-tr1-grid4x4-0-drqlong-delaydiff_pressure09\tripinfo_36.xml"/>
        <tripinfo-output.write-unfinished value="true"/>
    </output>

    <processing>
        <time-to-teleport value="-1"/>
    </processing>

    <report>
        <no-warnings value="true"/>
        <no-step-log value="true"/>
    </report>

    <traci_server>
        <remote-port value="58211"/>
    </traci_server>

    <random_number>
        <random value="true"/>
    </random_number>

</configuration>
-->

<tripinfos xmlns:xsi="http://www.w3.org/2001/XMLSchema-instance" xsi:noNamespaceSchemaLocation="http://sumo.dlr.de/xsd/tripinfo_file.xsd">
    <tripinfo id="11" depart="26.00" departLane="top2C3_0" departPos="5.10" departSpeed="0.00" departDelay="0.00" arrival="139.00" arrivalLane="D3top3_0" arrivalPos="286.40" arrivalSpeed="13.51" duration="113.00" routeLength="894.86" waitingTime="31.00" waitingCount="2" stopTime="0.00" timeLoss="48.01" rerouteNo="0" devices="tripinfo_11" vType="DEFAULT_VEHTYPE" speedFactor="1.01" vaporized=""/>
    <tripinfo id="7" depart="18.00" departLane="left2A2_0" departPos="5.10" departSpeed="0.00" departDelay="0.00" arrival="143.00" arrivalLane="A0bottom0_0" arrivalPos="286.40" arrivalSpeed="13.00" duration="125.00" routeLength="1179.77" waitingTime="22.00" waitingCount="1" stopTime="0.00" timeLoss="37.68" rerouteNo="0" devices="tripinfo_7" vType="DEFAULT_VEHTYPE" speedFactor="0.98" vaporized=""/>
    <tripinfo id="17" depart="51.00" departLane="left1A1_0" departPos="5.10" departSpeed="0.00" departDelay="0.00" arrival="147.00" arrivalLane="A2left2_0" arrivalPos="286.40" arrivalSpeed="15.08" duration="96.00" routeLength="894.86" waitingTime="19.00" waitingCount="2" stopTime="0.00" timeLoss="36.19" rerouteNo="0" devices="tripinfo_17" vType="DEFAULT_VEHTYPE" speedFactor="1.10" vaporized=""/>
    <tripinfo id="30" depart="93.00" departLane="right3D3_0" departPos="5.10" departSpeed="0.00" departDelay="0.00" arrival="151.00" arrivalLane="D3top3_0" arrivalPos="286.40" arrivalSpeed="11.91" duration="58.00" routeLength="576.73" waitingTime="1.00" waitingCount="1" stopTime="0.00" timeLoss="11.46" rerouteNo="0" devices="tripinfo_30" vType="DEFAULT_VEHTYPE" speedFactor="0.91" vaporized=""/>
    <tripinfo id="18" depart="55.00" departLane="right1D1_0" departPos="5.10" departSpeed="0.00" departDelay="0.00" arrival="167.00" arrivalLane="D3right3_0" arrivalPos="286.40" arrivalSpeed="13.90" duration="112.00" routeLength="1161.43" waitingTime="9.00" waitingCount="2" stopTime="0.00" timeLoss="28.51" rerouteNo="0" devices="tripinfo_18" vType="DEFAULT_VEHTYPE" speedFactor="1.02" vaporized=""/>
    <tripinfo id="26" depart="85.00" departLane="top0A3_0" departPos="5.10" departSpeed="0.00" departDelay="0.00" arrival="179.00" arrivalLane="A2left2_0" arrivalPos="286.40" arrivalSpeed="12.33" duration="94.00" routeLength="876.90" waitingTime="10.00" waitingCount="2" stopTime="0.00" timeLoss="25.23" rerouteNo="0" devices="tripinfo_26" vType="DEFAULT_VEHTYPE" speedFactor="0.93" vaporized=""/>
    <tripinfo id="3" depart="13.00" departLane="left0A0_0" departPos="5.10" departSpeed="0.00" departDelay="0.00" arrival="198.00" arrivalLane="D1right1_0" arrivalPos="286.40" arrivalSpeed="14.49" duration="185.00" routeLength="1782.59" waitingTime="33.00" waitingCount="3" stopTime="0.00" timeLoss="62.84" rerouteNo="0" devices="tripinfo_3" vType="DEFAULT_VEHTYPE" speedFactor="1.06" vaporized=""/>
    <tripinfo id="4" depart="13.00" departLane="right2D2_0" departPos="5.10" departSpeed="0.00" departDelay="0.00" arrival="199.00" arrivalLane="A3top0_0" arrivalPos="286.40" arrivalSpeed="13.82" duration="186.00" routeLength="1780.11" waitingTime="27.00" waitingCount="4" stopTime="0.00" timeLoss="59.39" rerouteNo="0" devices="tripinfo_4" vType="DEFAULT_VEHTYPE" speedFactor="1.03" vaporized=""/>
    <tripinfo id="41" depart="143.00" departLane="bottom1B0_0" departPos="5.10" departSpeed="0.00" departDelay="0.00" arrival="208.00" arrivalLane="C0bottom2_0" arrivalPos="286.40" arrivalSpeed="14.85" duration="65.00" routeLength="858.56" waitingTime="0.00" waitingCount="0" stopTime="0.00" timeLoss="9.87" rerouteNo="0" devices="tripinfo_41" vType="DEFAULT_VEHTYPE" speedFactor="1.15" vaporized=""/>
    <tripinfo id="36" depart="132.00" departLane="right2D2_0" departPos="5.10" departSpeed="0.00" departDelay="0.00" arrival="213.00" arrivalLane="D3right3_0" arrivalPos="286.40" arrivalSpeed="12.63" duration="81.00" routeLength="858.56" waitingTime="1.00" waitingCount="1" stopTime="0.00" timeLoss="13.92" rerouteNo="0" devices="tripinfo_36" vType="DEFAULT_VEHTYPE" speedFactor="0.94" vaporized=""/>
    <tripinfo id="14" depart="36.00" departLane="left2A2_0" departPos="5.10" departSpeed="0.00" departDelay="0.00" arrival="217.00" arrivalLane="D2right2_0" arrivalPos="286.40" arrivalSpeed="14.68" duration="181.00" routeLength="1495.58" waitingTime="50.00" waitingCount="4" stopTime="0.00" timeLoss="86.48" rerouteNo="0" devices="tripinfo_14" vType="DEFAULT_VEHTYPE" speedFactor="1.15" vaporized=""/>
    <tripinfo id="13" depart="32.00" departLane="left0A0_0" departPos="5.10" departSpeed="0.00" departDelay="0.00" arrival="221.00" arrivalLane="D3right3_0" arrivalPos="286.40" arrivalSpeed="16.51" duration="189.00" routeLength="2380.22" waitingTime="15.00" waitingCount="2" stopTime="0.00" timeLoss="50.68" rerouteNo="0" devices="tripinfo_13" vType="DEFAULT_VEHTYPE" speedFactor="1.25" vaporized=""/>
    <tripinfo id="2" depart="11.00" departLane="bottom1B0_0" departPos="5.10" departSpeed="0.00" departDelay="0.00" arrival="222.00" arrivalLane="D2right2_1" arrivalPos="286.40" arrivalSpeed="13.69" duration="211.00" routeLength="1780.11" waitingTime="44.00" waitingCount="4" stopTime="0.00" timeLoss="90.87" rerouteNo="0" devices="tripinfo_2" vType="DEFAULT_VEHTYPE" speedFactor="1.07" vaporized=""/>
    <tripinfo id="1" depart="7.00" departLane="top0A3_0" departPos="5.10" departSpeed="0.00" departDelay="0.00" arrival="225.00" arrivalLane="D2right2_0" arrivalPos="286.40" arrivalSpeed="11.18" duration="218.00" routeLength="1795.52" waitingTime="38.00" waitingCount="2" stopTime="0.00" timeLoss="67.65" rerouteNo="0" devices="tripinfo_1" vType="DEFAULT_VEHTYPE" speedFactor="0.87" vaporized=""/>
    <tripinfo id="6" depart="17.00" departLane="left3A3_0" departPos="5.10" departSpeed="0.00" departDelay="0.00" arrival="225.00" arrivalLane="B0bottom1_0" arrivalPos="286.40" arrivalSpeed="12.11" duration="208.00" routeLength="1780.11" waitingTime="40.00" waitingCount="2" stopTime="0.00" timeLoss="67.90" rerouteNo="0" devices="tripinfo_6" vType="DEFAULT_VEHTYPE" speedFactor="0.92" vaporized=""/>
    <tripinfo id="21" depart="66.00" departLane="top3D3_0" departPos="5.10" departSpeed="0.00" departDelay="0.00" arrival="227.00" arrivalLane="D0bottom3_0" arrivalPos="286.40" arrivalSpeed="14.86" duration="161.00" routeLength="1495.58" waitingTime="37.00" waitingCount="3" stopTime="0.00" timeLoss="65.12" rerouteNo="0" devices="tripinfo_21" vType="DEFAULT_VEHTYPE" speedFactor="1.13" vaporized=""/>
    <tripinfo id="8" depart="23.00" departLane="bottom1B0_0" departPos="5.10" departSpeed="0.00" departDelay="0.00" arrival="228.00" arrivalLane="A3left3_0" arrivalPos="286.40" arrivalSpeed="14.19" duration="205.00" routeLength="1795.52" waitingTime="51.00" waitingCount="3" stopTime="0.00" timeLoss="80.80" rerouteNo="0" devices="tripinfo_8" vType="DEFAULT_VEHTYPE" speedFactor="1.05" vaporized=""/>
    <tripinfo id="15" depart="38.00" departLane="left1A1_0" departPos="5.10" departSpeed="0.00" departDelay="0.00" arrival="233.00" arrivalLane="C0bottom2_0" arrivalPos="286.40" arrivalSpeed="10.98" duration="195.00" routeLength="1479.94" waitingTime="44.00" waitingCount="3" stopTime="0.00" timeLoss="67.77" rerouteNo="0" devices="tripinfo_15" vType="DEFAULT_VEHTYPE" speedFactor="0.84" vaporized=""/>
    <tripinfo id="10" depart="25.00" departLane="bottom0A0_0" departPos="5.10" departSpeed="0.00" departDelay="0.00" arrival="235.00" arrivalLane="D1right1_0" arrivalPos="286.40" arrivalSpeed="12.14" duration="210.00" routeLength="1780.11" waitingTime="40.00" waitingCount="3" stopTime="0.00" timeLoss="70.98" rerouteNo="0" devices="tripinfo_10" vType="DEFAULT_VEHTYPE" speedFactor="0.93" vaporized=""/>
    <tripinfo id="34" depart="128.00" departLane="right1D1_0" departPos="5.10" departSpeed="0.00" departDelay="0.00" arrival="237.00" arrivalLane="D3right3_0" arrivalPos="286.40" arrivalSpeed="12.11" duration="109.00" routeLength="1161.43" waitingTime="2.00" waitingCount="2" stopTime="0.00" timeLoss="16.90" rerouteNo="0" devices="tripinfo_34" vType="DEFAULT_VEHTYPE" speedFactor="0.93" vaporized=""/>
    <tripinfo id="16" depart="49.00" departLane="top1B3_0" departPos="5.10" departSpeed="0.00" departDelay="0.00" arrival="244.00" arrivalLane="A0left0_0" arrivalPos="286.40" arrivalSpeed="13.76" duration="195.00" routeLength="1780.11" waitingTime="40.00" waitingCount="2" stopTime="0.00" timeLoss="71.47" rerouteNo="0" devices="tripinfo_16" vType="DEFAULT_VEHTYPE" speedFactor="1.05" vaporized=""/>
    <tripinfo id="27" depart="88.00" departLane="top0A3_0" departPos="5.10" departSpeed="0.00" departDelay="2.00" arrival="246.00" arrivalLane="C3top2_0" arrivalPos="286.40" arrivalSpeed="15.21" duration="158.00" routeLength="1197.66" waitingTime="57.00" waitingCount="3" stopTime="0.00" timeLoss="82.01" rerouteNo="0" devices="tripinfo_27" vType="DEFAULT_VEHTYPE" speedFactor="1.15" vaporized=""/>
    <tripinfo id="9" depart="24.00" departLane="right1D1_0" departPos="5.10" departSpeed="0.00" departDelay="0.00" arrival="250.00" arrivalLane="A1left1_0" arrivalPos="286.40" arrivalSpeed="12.63" duration="226.00" routeLength="1495.58" waitingTime="91.00" waitingCount="3" stopTime="0.00" timeLoss="114.42" rerouteNo="0" devices="tripinfo_9" vType="DEFAULT_VEHTYPE" speedFactor="0.97" vaporized=""/>
    <tripinfo id="12" depart="32.00" departLane="right2D2_0" departPos="5.10" departSpeed="0.00" departDelay="0.00" arrival="250.00" arrivalLane="D2right2_0" arrivalPos="286.40" arrivalSpeed="12.68" duration="218.00" routeLength="1748.75" waitingTime="53.00" waitingCount="4" stopTime="0.00" timeLoss="84.88" rerouteNo="0" devices="tripinfo_12" vType="DEFAULT_VEHTYPE" speedFactor="0.97" vaporized=""/>
    <tripinfo id="19" depart="58.00" departLane="right1D1_0" departPos="5.10" departSpeed="0.00" departDelay="2.00" arrival="259.00" arrivalLane="A2left2_0" arrivalPos="286.40" arrivalSpeed="13.42" duration="201.00" routeLength="1782.72" waitingTime="44.00" waitingCount="2" stopTime="0.00" timeLoss="70.53" rerouteNo="0" devices="tripinfo_19" vType="DEFAULT_VEHTYPE" speedFactor="0.99" vaporized=""/>
    <tripinfo id="42" depart="143.00" departLane="right0D0_0" departPos="5.10" departSpeed="0.00" departDelay="0.00" arrival="269.00" arrivalLane="B0bottom1_0" arrivalPos="286.40" arrivalSpeed="13.46" duration="126.00" routeLength="1197.89" waitingTime="18.00" waitingCount="2" stopTime="0.00" timeLoss="39.86" rerouteNo="0" devices="tripinfo_42" vType="DEFAULT_VEHTYPE" speedFactor="1.01" vaporized=""/>
    <tripinfo id="5" depart="15.00" departLane="bottom0A0_0" departPos="5.10" departSpeed="0.00" departDelay="0.00" arrival="270.00" arrivalLane="D2right2_0" arrivalPos="286.40" arrivalSpeed="12.84" duration="255.00" routeLength="2080.28" waitingTime="57.00" waitingCount="5" stopTime="0.00" timeLoss="95.41" rerouteNo="0" devices="tripinfo_5" vType="DEFAULT_VEHTYPE" speedFactor="0.94" vaporized=""/>
    <tripinfo id="37" depart="135.00" departLane="top2C3_0" departPos="5.10" departSpeed="0.00" departDelay="0.00" arrival="271.00" arrivalLane="A3top0_0" arrivalPos="286.40" arrivalSpeed="12.00" duration="136.00" routeLength="1161.43" waitingTime="24.00" waitingCount="2" stopTime="0.00" timeLoss="46.35" rerouteNo="0" devices="tripinfo_37" vType="DEFAULT_VEHTYPE" speedFactor="0.96" vaporized=""/>
    <tripinfo id="43" depart="148.00" departLane="bottom1B0_0" departPos="5.10" departSpeed="0.00" departDelay="0.00" arrival="282.00" arrivalLane="D0right0_0" arrivalPos="286.40" arrivalSpeed="11.67" duration="134.00" routeLength="1179.77" waitingTime="16.00" waitingCount="2" stopTime="0.00" timeLoss="34.93" rerouteNo="0" devices="tripinfo_43" vType="DEFAULT_VEHTYPE" speedFactor="0.87" vaporized=""/>
    <tripinfo id="20" depart="60.00" departLane="bottom2C0_0" departPos="5.10" departSpeed="0.00" departDelay="0.00" arrival="287.00" arrivalLane="A2left2_0" arrivalPos="286.40" arrivalSpeed="14.25" duration="227.00" routeLength="1795.52" waitingTime="69.00" waitingCount="5" stopTime="0.00" timeLoss="109.54" rerouteNo="0" devices="tripinfo_20" vType="DEFAULT_VEHTYPE" speedFactor="1.11" vaporized=""/>
    <tripinfo id="32" depart="108.00" departLane="top1B3_0" departPos="5.10" departSpeed="0.00" departDelay="0.00" arrival="291.00" arrivalLane="B0bottom1_0" arrivalPos="286.40" arrivalSpeed="11.77" duration="183.00" routeLength="1495.58" waitingTime="38.00" waitingCount="3" stopTime="0.00" timeLoss="63.69" rerouteNo="0" devices="tripinfo_32" vType="DEFAULT_VEHTYPE" speedFactor="0.90" vaporized=""/>
    <tripinfo id="35" depart="129.00" departLane="top2C3_0" departPos="5.10" departSpeed="0.00" departDelay="0.00" arrival="298.00" arrivalLane="C3top2_0" arrivalPos="286.40" arrivalSpeed="13.73" duration="169.00" routeLength="1748.75" waitingTime="17.00" waitingCount="4" stopTime="0.00" timeLoss="44.11" rerouteNo="0" devices="tripinfo_35" vType="DEFAULT_VEHTYPE" speedFactor="1.03" vaporized=""/>
    <tripinfo id="54" depart="205.00" departLane="bottom2C0_0" departPos="5.10" departSpeed="0.00" departDelay="0.00" arrival="299.00" arrivalLane="D0bottom3_0" arrivalPos="286.40" arrivalSpeed="9.78" duration="94.00" routeLength="858.56" waitingTime="1.00" waitingCount="1" stopTime="0.00" timeLoss="13.07" rerouteNo="0" devices="tripinfo_54" vType="DEFAULT_VEHTYPE" speedFactor="0.79" vaporized=""/>
    <tripinfo id="33" depart="115.00" departLane="bottom2C0_0" departPos="5.10" departSpeed="0.00" departDelay="0.00" arrival="300.00" arrivalLane="C0bottom2_0" arrivalPos="286.40" arrivalSpeed="12.23" duration="185.00" routeLength="1748.75" waitingTime="22.00" waitingCount="4" stopTime="0.00" timeLoss="51.74" rerouteNo="0" devices="tripinfo_33" vType="DEFAULT_VEHTYPE" speedFactor="0.96" vaporized=""/>
    <tripinfo id="59" depart="232.00" departLane="bottom2C0_0" departPos="5.10" departSpeed="0.00" departDelay="0.00" arrival="308.00" arrivalLane="D0bottom3_0" arrivalPos="286.40" arrivalSpeed="13.62" duration="76.00" routeLength="858.56" waitingTime="1.00" waitingCount="1" stopTime="0.00" timeLoss="14.96" rerouteNo="0" devices="tripinfo_59" vType="DEFAULT_VEHTYPE" speedFactor="1.05" vaporized=""/>
    <tripinfo id="38" depart="138.00" departLane="bottom1B0_0" departPos="5.10" departSpeed="0.00" departDelay="0.00" arrival="310.00" arrivalLane="D1right1_0" arrivalPos="286.40" arrivalSpeed="12.77" duration="172.00" routeLength="1479.94" waitingTime="35.00" waitingCount="2" stopTime="0.00" timeLoss="57.88" rerouteNo="0" devices="tripinfo_38" vType="DEFAULT_VEHTYPE" speedFactor="0.94" vaporized=""/>
    <tripinfo id="39" depart="140.00" departLane="bottom0A0_0" departPos="5.10" departSpeed="0.00" departDelay="0.00" arrival="310.00" arrivalLane="D0right0_0" arrivalPos="286.40" arrivalSpeed="12.47" duration="170.00" routeLength="1479.94" waitingTime="33.00" waitingCount="2" stopTime="0.00" timeLoss="58.56" rerouteNo="0" devices="tripinfo_39" vType="DEFAULT_VEHTYPE" speedFactor="0.96" vaporized=""/>
    <tripinfo id="56" depart="212.00" departLane="bottom2C0_0" departPos="5.10" departSpeed="0.00" departDelay="1.00" arrival="315.00" arrivalLane="B0bottom1_0" arrivalPos="286.40" arrivalSpeed="15.69" duration="103.00" routeLength="894.86" waitingTime="36.00" waitingCount="1" stopTime="0.00" timeLoss="48.50" rerouteNo="0" devices="tripinfo_56" vType="DEFAULT_VEHTYPE" speedFactor="1.20" vaporized=""/>
    <tripinfo id="45" depart="169.00" departLane="bottom2C0_0" departPos="5.10" departSpeed="0.00" departDelay="0.00" arrival="318.00" arrivalLane="A1left1_0" arrivalPos="286.40" arrivalSpeed="14.45" duration="149.00" routeLength="1495.35" waitingTime="23.00" waitingCount="3" stopTime="0.00" timeLoss="49.17" rerouteNo="0" devices="tripinfo_45" vType="DEFAULT_VEHTYPE" speedFactor="1.09" vaporized=""/>
    <tripinfo id="40" depart="142.00" departLane="left1A1_0" departPos="5.10" departSpeed="0.00" departDelay="0.00" arrival="319.00" arrivalLane="C3top2_0" arrivalPos="286.40" arrivalSpeed="13.31" duration="177.00" routeLength="1795.52" waitingTime="22.00" waitingCount="3" stopTime="0.00" timeLoss="48.54" rerouteNo="0" devices="tripinfo_40" vType="DEFAULT_VEHTYPE" speedFactor="1.01" vaporized=""/>
    <tripinfo id="48" depart="182.00" departLane="bottom1B0_0" departPos="5.10" departSpeed="0.00" departDelay="0.00" arrival="321.00" arrivalLane="A1left1_0" arrivalPos="286.40" arrivalSpeed="13.59" duration="139.00" routeLength="1195.18" waitingTime="27.00" waitingCount="3" stopTime="0.00" timeLoss="50.79" rerouteNo="0" devices="tripinfo_48" vType="DEFAULT_VEHTYPE" speedFactor="0.98" vaporized=""/>
    <tripinfo id="31" depart="105.00" departLane="bottom1B0_0" departPos="5.10" departSpeed="0.00" departDelay="0.00" arrival="327.00" arrivalLane="B3top1_0" arrivalPos="286.40" arrivalSpeed="13.88" duration="222.00" routeLength="1495.58" waitingTime="92.00" waitingCount="4" stopTime="0.00" timeLoss="122.84" rerouteNo="0" devices="tripinfo_31" vType="DEFAULT_VEHTYPE" speedFactor="1.09" vaporized=""/>
    <tripinfo id="0" depart="1.00" departLane="top3D3_0" departPos="5.10" departSpeed="0.00" departDelay="0.00" arrival="329.00" arrivalLane="A0left0_0" arrivalPos="286.40" arrivalSpeed="13.02" duration="328.00" routeLength="2380.45" waitingTime="112.00" waitingCount="6" stopTime="0.00" timeLoss="159.14" rerouteNo="0" devices="tripinfo_0" vType="DEFAULT_VEHTYPE" speedFactor="1.02" vaporized=""/>
    <tripinfo id="28" depart="91.00" departLane="top3D3_0" departPos="5.10" departSpeed="0.00" departDelay="0.00" arrival="330.00" arrivalLane="A0left0_0" arrivalPos="286.40" arrivalSpeed="14.00" duration="239.00" routeLength="2380.45" waitingTime="36.00" waitingCount="4" stopTime="0.00" timeLoss="74.46" rerouteNo="0" devices="tripinfo_28" vType="DEFAULT_VEHTYPE" speedFactor="1.05" vaporized=""/>
    <tripinfo id="49" depart="183.00" departLane="left3A3_0" departPos="5.10" departSpeed="0.00" departDelay="0.00" arrival="330.00" arrivalLane="A1left1_0" arrivalPos="286.40" arrivalSpeed="13.02" duration="147.00" routeLength="1161.43" waitingTime="33.00" waitingCount="3" stopTime="0.00" timeLoss="56.86" rerouteNo="0" devices="tripinfo_49" vType="DEFAULT_VEHTYPE" speedFactor="0.94" vaporized=""/>
    <tripinfo id="25" depart="80.00" departLane="top1B3_0" departPos="5.10" departSpeed="0.00" departDelay="0.00" arrival="331.00" arrivalLane="C0bottom2_0" arrivalPos="286.40" arrivalSpeed="12.04" duration="251.00" routeLength="1782.59" waitingTime="76.00" waitingCount="5" stopTime="0.00" timeLoss="110.29" rerouteNo="0" devices="tripinfo_25" vType="DEFAULT_VEHTYPE" speedFactor="0.92" vaporized=""/>
    <tripinfo id="46" depart="171.00" departLane="top3D3_0" departPos="5.10" departSpeed="0.00" departDelay="0.00" arrival="332.00" arrivalLane="A3top0_0" arrivalPos="286.40" arrivalSpeed="15.46" duration="161.00" routeLength="1461.60" waitingTime="35.00" waitingCount="4" stopTime="0.00" timeLoss="66.89" rerouteNo="0" devices="tripinfo_46" vType="DEFAULT_VEHTYPE" speedFactor="1.14" vaporized=""/>
    <tripinfo id="44" depart="161.00" departLane="bottom0A0_0" departPos="5.10" departSpeed="0.00" departDelay="0.00" arrival="355.00" arrivalLane="B3top1_0" arrivalPos="286.40" arrivalSpeed="11.89" duration="194.00" routeLength="1782.72" waitingTime="27.00" waitingCount="2" stopTime="0.00" timeLoss="53.23" rerouteNo="0" devices="tripinfo_44" vType="DEFAULT_VEHTYPE" speedFactor="0.92" vaporized=""/>
    <tripinfo id="47" depart="180.00" departLane="top2C3_0" departPos="5.10" departSpeed="0.00" departDelay="0.00" arrival="355.00" arrivalLane="B0bottom1_0" arrivalPos="286.40" arrivalSpeed="16.02" duration="175.00" routeLength="1782.72" waitingTime="38.00" waitingCount="3" stopTime="0.00" timeLoss="63.28" rerouteNo="0" devices="tripinfo_47" vType="DEFAULT_VEHTYPE" speedFactor="1.16" vaporized=""/>
    <tripinfo id="53" depart="193.00" departLane="left2A2_0" departPos="5.10" departSpeed="0.00" departDelay="0.00" arrival="358.00" arrivalLane="D3top3_0" arrivalPos="286.40" arrivalSpeed="14.94" duration="165.00" routeLength="1795.52" waitingTime="25.00" waitingCount="2" stopTime="0.00" timeLoss="46.58" rerouteNo="0" devices="tripinfo_53" vType="DEFAULT_VEHTYPE" speedFactor="1.10" vaporized=""/>
    <tripinfo id="55" depart="209.00" departLane="bottom2C0_0" departPos="5.10" departSpeed="0.00" departDelay="0.00" arrival="366.00" arrivalLane="A2left2_0" arrivalPos="286.40" arrivalSpeed="15.54" duration="157.00" routeLength="1795.52" waitingTime="14.00" waitingCount="3" stopTime="0.00" timeLoss="47.31" rerouteNo="0" devices="tripinfo_55" vType="DEFAULT_VEHTYPE" speedFactor="1.18" vaporized=""/>
    <tripinfo id="22" depart="68.00" departLane="right3D3_0" departPos="5.10" departSpeed="0.00" departDelay="0.00" arrival="368.00" arrivalLane="A0bottom0_0" arrivalPos="286.40" arrivalSpeed="13.72" duration="300.00" routeLength="2395.86" waitingTime="100.00" waitingCount="4" stopTime="0.00" timeLoss="135.50" rerouteNo="0" devices="tripinfo_22" vType="DEFAULT_VEHTYPE" speedFactor="1.05" vaporized=""/>
    <tripinfo id="29" depart="93.00" departLane="bottom0A0_0" departPos="5.10" departSpeed="0.00" departDelay="0.00" arrival="372.00" arrivalLane="D3right3_0" arrivalPos="286.40" arrivalSpeed="11.84" duration="279.00" routeLength="2380.45" waitingTime="44.00" waitingCount="5" stopTime="0.00" timeLoss="83.30" rerouteNo="0" devices="tripinfo_29" vType="DEFAULT_VEHTYPE" speedFactor="0.88" vaporized=""/>
    <tripinfo id="24" depart="79.00" departLane="right2D2_0" departPos="5.10" departSpeed="0.00" departDelay="0.00" arrival="374.00" arrivalLane="A0bottom0_0" arrivalPos="286.40" arrivalSpeed="11.76" duration="295.00" routeLength="2095.69" waitingTime="93.00" waitingCount="3" stopTime="0.00" timeLoss="121.23" rerouteNo="0" devices="tripinfo_24" vType="DEFAULT_VEHTYPE" speedFactor="0.87" vaporized=""/>
    <tripinfo id="50" depart="186.00" departLane="top0A3_0" departPos="5.10" departSpeed="0.00" departDelay="0.00" arrival="377.00" arrivalLane="A0bottom0_0" arrivalPos="286.40" arrivalSpeed="10.75" duration="191.00" routeLength="1495.58" waitingTime="35.00" waitingCount="4" stopTime="0.00" timeLoss="62.33" rerouteNo="0" devices="tripinfo_50" vType="DEFAULT_VEHTYPE" speedFactor="0.84" vaporized=""/>
    <tripinfo id="91" depart="332.00" departLane="right3D3_0" departPos="5.10" departSpeed="0.00" departDelay="0.00" arrival="381.00" arrivalLane="D3top3_0" arrivalPos="286.40" arrivalSpeed="14.02" duration="49.00" routeLength="576.73" waitingTime="1.00" waitingCount="1" stopTime="0.00" timeLoss="9.57" rerouteNo="0" devices="tripinfo_91" vType="DEFAULT_VEHTYPE" speedFactor="1.09" vaporized=""/>
    <tripinfo id="23" depart="74.00" departLane="right0D0_0" departPos="5.10" departSpeed="0.00" departDelay="0.00" arrival="389.00" arrivalLane="A3left3_0" arrivalPos="286.40" arrivalSpeed="14.04" duration="315.00" routeLength="2382.93" waitingTime="97.00" waitingCount="7" stopTime="0.00" timeLoss="144.36" rerouteNo="0" devices="tripinfo_23" vType="DEFAULT_VEHTYPE" speedFactor="1.01" vaporized=""/>
    <tripinfo id="98" depart="356.00" departLane="bottom3D0_0" departPos="5.10" departSpeed="0.00" departDelay="0.00" arrival="404.00" arrivalLane="D0right0_0" arrivalPos="286.40" arrivalSpeed="14.33" duration="48.00" routeLength="576.73" waitingTime="0.00" waitingCount="0" stopTime="0.00" timeLoss="7.14" rerouteNo="0" devices="tripinfo_98" vType="DEFAULT_VEHTYPE" speedFactor="1.04" vaporized=""/>
    <tripinfo id="60" depart="246.00" departLane="top3D3_0" departPos="5.10" departSpeed="0.00" departDelay="0.00" arrival="405.00" arrivalLane="D1right1_0" arrivalPos="286.40" arrivalSpeed="9.99" duration="159.00" routeLength="1197.89" waitingTime="29.00" waitingCount="3" stopTime="0.00" timeLoss="49.55" rerouteNo="0" devices="tripinfo_60" vType="DEFAULT_VEHTYPE" speedFactor="0.79" vaporized=""/>
    <tripinfo id="85" depart="317.00" departLane="right1D1_0" departPos="5.10" departSpeed="0.00" departDelay="0.00" arrival="405.00" arrivalLane="D2right2_0" arrivalPos="286.40" arrivalSpeed="10.83" duration="88.00" routeLength="858.56" waitingTime="1.00" waitingCount="1" stopTime="0.00" timeLoss="13.41" rerouteNo="0" devices="tripinfo_85" vType="DEFAULT_VEHTYPE" speedFactor="0.86" vaporized=""/>
    <tripinfo id="69" depart="292.00" departLane="top1B3_0" departPos="5.10" departSpeed="0.00" departDelay="0.00" arrival="427.00" arrivalLane="A1left1_0" arrivalPos="286.40" arrivalSpeed="13.79" duration="135.00" routeLength="1479.94" waitingTime="14.00" waitingCount="2" stopTime="0.00" timeLoss="34.30" rerouteNo="0" devices="tripinfo_69" vType="DEFAULT_VEHTYPE" speedFactor="1.06" vaporized=""/>
    <tripinfo id="65" depart="277.00" departLane="bottom1B0_0" departPos="5.10" departSpeed="0.00" departDelay="0.00" arrival="432.00" arrivalLane="A2left2_0" arrivalPos="286.40" arrivalSpeed="11.51" duration="155.00" routeLength="1495.35" waitingTime="12.00" waitingCount="2" stopTime="0.00" timeLoss="33.79" rerouteNo="0" devices="tripinfo_65" vType="DEFAULT_VEHTYPE" speedFactor="0.90" vaporized=""/>
    <tripinfo id="92" depart="335.00" departLane="bottom0A0_0" departPos="5.10" departSpeed="0.00" departDelay="0.00" arrival="438.00" arrivalLane="A1left1_0" arrivalPos="286.40" arrivalSpeed="15.12" duration="103.00" routeLength="897.72" waitingTime="27.00" waitingCount="2" stopTime="0.00" timeLoss="43.76" rerouteNo="0" devices="tripinfo_92" vType="DEFAULT_VEHTYPE" speedFactor="1.12" vaporized=""/>
    <tripinfo id="52" depart="190.00" departLane="top3D3_0" departPos="5.10" departSpeed="0.00" departDelay="0.00" arrival="447.00" arrivalLane="D0bottom3_0" arrivalPos="286.40" arrivalSpeed="14.24" duration="257.00" routeLength="1495.58" waitingTime="123.00" waitingCount="4" stopTime="0.00" timeLoss="156.00" rerouteNo="0" devices="tripinfo_52" vType="DEFAULT_VEHTYPE" speedFactor="1.07" vaporized=""/>
    <tripinfo id="84" depart="316.00" departLane="right0D0_0" departPos="5.10" departSpeed="0.00" departDelay="0.00" arrival="448.00" arrivalLane="A0left0_0" arrivalPos="286.40" arrivalSpeed="14.24" duration="132.00" routeLength="1495.58" waitingTime="9.00" waitingCount="1" stopTime="0.00" timeLoss="30.42" rerouteNo="0" devices="tripinfo_84" vType="DEFAULT_VEHTYPE" speedFactor="1.07" vaporized=""/>
    <tripinfo id="104" depart="377.00" departLane="left3A3_0" departPos="5.10" departSpeed="0.00" departDelay="0.00" arrival="450.00" arrivalLane="A3top0_0" arrivalPos="286.40" arrivalSpeed="13.19" duration="73.00" routeLength="597.55" waitingTime="18.00" waitingCount="1" stopTime="0.00" timeLoss="29.06" rerouteNo="0" devices="tripinfo_104" vType="DEFAULT_VEHTYPE" speedFactor="1.01" vaporized=""/>
    <tripinfo id="51" depart="189.00" departLane="top0A3_0" departPos="5.10" departSpeed="0.00" departDelay="1.00" arrival="452.00" arrivalLane="D3top3_0" arrivalPos="286.40" arrivalSpeed="8.36" duration="263.00" routeLength="1497.83" waitingTime="67.00" waitingCount="3" stopTime="0.00" timeLoss="95.01" rerouteNo="0" devices="tripinfo_51" vType="DEFAULT_VEHTYPE" speedFactor="0.65" vaporized=""/>
    <tripinfo id="106" depart="396.00" departLane="left3A3_0" departPos="5.10" departSpeed="0.00" departDelay="0.00" arrival="453.00" arrivalLane="A3top0_0" arrivalPos="286.40" arrivalSpeed="12.39" duration="57.00" routeLength="597.55" waitingTime="1.00" waitingCount="1" stopTime="0.00" timeLoss="11.05" rerouteNo="0" devices="tripinfo_106" vType="DEFAULT_VEHTYPE" speedFactor="0.97" vaporized=""/>
    <tripinfo id="71" depart="294.00" departLane="bottom1B0_0" departPos="5.10" departSpeed="0.00" departDelay="0.00" arrival="457.00" arrivalLane="B0bottom1_0" arrivalPos="286.40" arrivalSpeed="14.16" duration="163.00" routeLength="1748.75" waitingTime="11.00" waitingCount="4" stopTime="0.00" timeLoss="45.85" rerouteNo="0" devices="tripinfo_71" vType="DEFAULT_VEHTYPE" speedFactor="1.09" vaporized=""/>
    <tripinfo id="57" depart="216.00" departLane="bottom1B0_0" departPos="5.10" departSpeed="0.00" departDelay="0.00" arrival="460.00" arrivalLane="D3top3_0" arrivalPos="286.40" arrivalSpeed="13.03" duration="244.00" routeLength="2082.76" waitingTime="53.00" waitingCount="5" stopTime="0.00" timeLoss="90.68" rerouteNo="0" devices="tripinfo_57" vType="DEFAULT_VEHTYPE" speedFactor="0.99" vaporized=""/>
    <tripinfo id="64" depart="277.00" departLane="left0A0_0" departPos="5.10" departSpeed="0.00" departDelay="0.00" arrival="460.00" arrivalLane="A3top0_0" arrivalPos="286.40" arrivalSpeed="13.06" duration="183.00" routeLength="1495.35" waitingTime="46.00" waitingCount="3" stopTime="0.00" timeLoss="70.23" rerouteNo="0" devices="tripinfo_64" vType="DEFAULT_VEHTYPE" speedFactor="0.96" vaporized=""/>