<?xml version="1.0" encoding="UTF-8"?>

<!-- generated on 12/19/21 17:32:09 by Eclipse SUMO sumo Version 1.7.0
<configuration xmlns:xsi="http://www.w3.org/2001/XMLSchema-instance" xsi:noNamespaceSchemaLocation="http://sumo.dlr.de/xsd/sumoConfiguration.xsd">

    <input>
        <net-file value="C:\Users\longs\Desktop\RESCO-main\environments\grid4x4\grid4x4.net.xml"/>
        <route-files value="C:\Users\longs\Desktop\RESCO-main\environments\grid4x4\grid4x4_11.rou.xml"/>
    </input>

    <output>
        <tripinfo-output value="C:\Users\longs\Desktop\RESCO-main\logs\IDQN-tr1-grid4x4-0-drqlong-delaydiff_pressure09\tripinfo_11.xml"/>
        <tripinfo-output.write-unfinished value="true"/>
    </output>

    <processing>
        <time-to-teleport value="-1"/>
    </processing>

    <report>
        <no-warnings value="true"/>
        <no-step-log value="true"/>
    </report>

    <traci_server>
        <remote-port value="57338"/>
    </traci_server>

    <random_number>
        <random value="true"/>
    </random_number>

</configuration>
-->

<tripinfos xmlns:xsi="http://www.w3.org/2001/XMLSchema-instance" xsi:noNamespaceSchemaLocation="http://sumo.dlr.de/xsd/tripinfo_file.xsd">
    <tripinfo id="5" depart="43.00" departLane="left0A0_0" departPos="5.10" departSpeed="0.00" departDelay="0.00" arrival="121.00" arrivalLane="B0bottom1_0" arrivalPos="286.40" arrivalSpeed="12.93" duration="78.00" routeLength="876.90" waitingTime="1.00" waitingCount="1" stopTime="0.00" timeLoss="12.56" rerouteNo="0" devices="tripinfo_5" vType="DEFAULT_VEHTYPE" speedFactor="0.98" vaporized=""/>
    <tripinfo id="8" depart="58.00" departLane="left1A1_0" departPos="5.10" departSpeed="0.00" departDelay="0.00" arrival="129.00" arrivalLane="A2left2_0" arrivalPos="286.40" arrivalSpeed="13.89" duration="71.00" routeLength="894.86" waitingTime="0.00" waitingCount="0" stopTime="0.00" timeLoss="7.22" rerouteNo="0" devices="tripinfo_8" vType="DEFAULT_VEHTYPE" speedFactor="1.02" vaporized=""/>
    <tripinfo id="6" depart="49.00" departLane="bottom0A0_0" departPos="5.10" departSpeed="0.00" departDelay="0.00" arrival="151.00" arrivalLane="A1left1_0" arrivalPos="286.40" arrivalSpeed="12.93" duration="102.00" routeLength="897.72" waitingTime="15.00" waitingCount="1" stopTime="0.00" timeLoss="32.49" rerouteNo="0" devices="tripinfo_6" vType="DEFAULT_VEHTYPE" speedFactor="0.94" vaporized=""/>
    <tripinfo id="9" depart="66.00" departLane="left2A2_0" departPos="5.10" departSpeed="0.00" departDelay="0.00" arrival="159.00" arrivalLane="A3left3_0" arrivalPos="286.40" arrivalSpeed="13.51" duration="93.00" routeLength="894.86" waitingTime="17.00" waitingCount="1" stopTime="0.00" timeLoss="28.75" rerouteNo="0" devices="tripinfo_9" vType="DEFAULT_VEHTYPE" speedFactor="1.02" vaporized=""/>
    <tripinfo id="14" depart="86.00" departLane="top3D3_0" departPos="5.10" departSpeed="0.00" departDelay="0.00" arrival="183.00" arrivalLane="B3top1_0" arrivalPos="286.40" arrivalSpeed="13.98" duration="97.00" routeLength="1161.43" waitingTime="2.00" waitingCount="2" stopTime="0.00" timeLoss="19.83" rerouteNo="0" devices="tripinfo_14" vType="DEFAULT_VEHTYPE" speedFactor="1.10" vaporized=""/>
    <tripinfo id="17" depart="118.00" departLane="left2A2_0" departPos="5.10" departSpeed="0.00" departDelay="0.00" arrival="208.00" arrivalLane="A1left1_0" arrivalPos="286.40" arrivalSpeed="11.38" duration="90.00" routeLength="858.56" waitingTime="2.00" waitingCount="2" stopTime="0.00" timeLoss="16.61" rerouteNo="0" devices="tripinfo_17" vType="DEFAULT_VEHTYPE" speedFactor="0.86" vaporized=""/>
    <tripinfo id="3" depart="37.00" departLane="bottom2C0_0" departPos="5.10" departSpeed="0.00" departDelay="0.00" arrival="211.00" arrivalLane="A0bottom0_0" arrivalPos="286.40" arrivalSpeed="11.90" duration="174.00" routeLength="1197.66" waitingTime="55.00" waitingCount="3" stopTime="0.00" timeLoss="78.10" rerouteNo="0" devices="tripinfo_3" vType="DEFAULT_VEHTYPE" speedFactor="0.91" vaporized=""/>
    <tripinfo id="2" depart="36.00" departLane="top1B3_0" departPos="5.10" departSpeed="0.00" departDelay="0.00" arrival="231.00" arrivalLane="B3top1_0" arrivalPos="286.40" arrivalSpeed="11.95" duration="195.00" routeLength="1748.75" waitingTime="19.00" waitingCount="3" stopTime="0.00" timeLoss="46.36" rerouteNo="0" devices="tripinfo_2" vType="DEFAULT_VEHTYPE" speedFactor="0.87" vaporized=""/>
    <tripinfo id="15" depart="95.00" departLane="bottom0A0_0" departPos="5.10" departSpeed="0.00" departDelay="0.00" arrival="232.00" arrivalLane="A2left2_0" arrivalPos="286.40" arrivalSpeed="11.30" duration="137.00" routeLength="1197.89" waitingTime="21.00" waitingCount="2" stopTime="0.00" timeLoss="37.25" rerouteNo="0" devices="tripinfo_15" vType="DEFAULT_VEHTYPE" speedFactor="0.87" vaporized=""/>
    <tripinfo id="0" depart="3.00" departLane="bottom2C0_0" departPos="5.10" departSpeed="0.00" departDelay="0.00" arrival="238.00" arrivalLane="D3right3_0" arrivalPos="286.40" arrivalSpeed="14.09" duration="235.00" routeLength="1780.11" waitingTime="86.00" waitingCount="3" stopTime="0.00" timeLoss="113.16" rerouteNo="0" devices="tripinfo_0" vType="DEFAULT_VEHTYPE" speedFactor="1.06" vaporized=""/>
    <tripinfo id="1" depart="22.00" departLane="left3A3_0" departPos="5.10" departSpeed="0.00" departDelay="0.00" arrival="242.00" arrivalLane="D3right3_0" arrivalPos="286.40" arrivalSpeed="11.79" duration="220.00" routeLength="1495.58" waitingTime="75.00" waitingCount="4" stopTime="0.00" timeLoss="105.00" rerouteNo="0" devices="tripinfo_1" vType="DEFAULT_VEHTYPE" speedFactor="0.94" vaporized=""/>
    <tripinfo id="4" depart="41.00" departLane="left2A2_0" departPos="5.10" departSpeed="0.00" departDelay="0.00" arrival="250.00" arrivalLane="C0bottom2_0" arrivalPos="286.40" arrivalSpeed="12.66" duration="209.00" routeLength="1780.11" waitingTime="50.00" waitingCount="3" stopTime="0.00" timeLoss="79.45" rerouteNo="0" devices="tripinfo_4" vType="DEFAULT_VEHTYPE" speedFactor="1.00" vaporized=""/>
    <tripinfo id="7" depart="56.00" departLane="top3D3_0" departPos="5.10" departSpeed="0.00" departDelay="0.00" arrival="250.00" arrivalLane="A2left2_0" arrivalPos="286.40" arrivalSpeed="12.32" duration="194.00" routeLength="1780.11" waitingTime="30.00" waitingCount="3" stopTime="0.00" timeLoss="55.08" rerouteNo="0" devices="tripinfo_7" vType="DEFAULT_VEHTYPE" speedFactor="0.93" vaporized=""/>
    <tripinfo id="19" depart="122.00" departLane="top0A3_0" departPos="5.10" departSpeed="0.00" departDelay="0.00" arrival="267.00" arrivalLane="A0bottom0_0" arrivalPos="286.40" arrivalSpeed="15.26" duration="145.00" routeLength="1495.58" waitingTime="25.00" waitingCount="3" stopTime="0.00" timeLoss="48.66" rerouteNo="0" devices="tripinfo_19" vType="DEFAULT_VEHTYPE" speedFactor="1.13" vaporized=""/>
    <tripinfo id="31" depart="225.00" departLane="left0A0_0" departPos="5.10" departSpeed="0.00" departDelay="0.00" arrival="276.00" arrivalLane="A0bottom0_0" arrivalPos="286.40" arrivalSpeed="13.76" duration="51.00" routeLength="576.73" waitingTime="1.00" waitingCount="1" stopTime="0.00" timeLoss="10.98" rerouteNo="0" devices="tripinfo_31" vType="DEFAULT_VEHTYPE" speedFactor="1.06" vaporized=""/>
    <tripinfo id="10" depart="66.00" departLane="left1A1_0" departPos="5.10" departSpeed="0.00" departDelay="0.00" arrival="279.00" arrivalLane="D1right1_0" arrivalPos="286.40" arrivalSpeed="13.91" duration="213.00" routeLength="1495.58" waitingTime="82.00" waitingCount="3" stopTime="0.00" timeLoss="105.18" rerouteNo="0" devices="tripinfo_10" vType="DEFAULT_VEHTYPE" speedFactor="1.00" vaporized=""/>
    <tripinfo id="12" depart="73.00" departLane="bottom1B0_0" departPos="5.10" departSpeed="0.00" departDelay="0.00" arrival="282.00" arrivalLane="A1left1_0" arrivalPos="286.40" arrivalSpeed="10.72" duration="209.00" routeLength="1195.18" waitingTime="88.00" waitingCount="2" stopTime="0.00" timeLoss="104.88" rerouteNo="0" devices="tripinfo_12" vType="DEFAULT_VEHTYPE" speedFactor="0.84" vaporized=""/>
    <tripinfo id="13" depart="76.00" departLane="bottom1B0_0" departPos="5.10" departSpeed="0.00" departDelay="0.00" arrival="285.00" arrivalLane="D1right1_0" arrivalPos="286.40" arrivalSpeed="10.18" duration="209.00" routeLength="1479.94" waitingTime="53.00" waitingCount="3" stopTime="0.00" timeLoss="79.13" rerouteNo="0" devices="tripinfo_13" vType="DEFAULT_VEHTYPE" speedFactor="0.82" vaporized=""/>
    <tripinfo id="32" depart="227.00" departLane="left2A2_0" departPos="5.10" departSpeed="0.00" departDelay="0.00" arrival="321.00" arrivalLane="A1left1_0" arrivalPos="286.40" arrivalSpeed="10.77" duration="94.00" routeLength="858.56" waitingTime="3.00" waitingCount="2" stopTime="0.00" timeLoss="18.74" rerouteNo="0" devices="tripinfo_32" vType="DEFAULT_VEHTYPE" speedFactor="0.85" vaporized=""/>
    <tripinfo id="21" depart="148.00" departLane="left0A0_0" departPos="5.10" departSpeed="0.00" departDelay="0.00" arrival="339.00" arrivalLane="A0left0_0" arrivalPos="286.40" arrivalSpeed="13.53" duration="191.00" routeLength="1745.91" waitingTime="31.00" waitingCount="5" stopTime="0.00" timeLoss="67.27" rerouteNo="0" devices="tripinfo_21" vType="DEFAULT_VEHTYPE" speedFactor="1.04" vaporized=""/>
    <tripinfo id="33" depart="227.00" departLane="bottom1B0_0" departPos="5.10" departSpeed="0.00" departDelay="0.00" arrival="343.00" arrivalLane="D0bottom3_0" arrivalPos="286.40" arrivalSpeed="13.27" duration="116.00" routeLength="1161.43" waitingTime="10.00" waitingCount="2" stopTime="0.00" timeLoss="29.79" rerouteNo="0" devices="tripinfo_33" vType="DEFAULT_VEHTYPE" speedFactor="0.99" vaporized=""/>
    <tripinfo id="40" depart="252.00" departLane="bottom1B0_0" departPos="5.10" departSpeed="0.00" departDelay="0.00" arrival="345.00" arrivalLane="D0right0_0" arrivalPos="286.40" arrivalSpeed="14.07" duration="93.00" routeLength="1179.77" waitingTime="0.00" waitingCount="0" stopTime="0.00" timeLoss="8.21" rerouteNo="0" devices="tripinfo_40" vType="DEFAULT_VEHTYPE" speedFactor="1.02" vaporized=""/>
    <tripinfo id="44" depart="264.00" departLane="left0A0_0" departPos="5.10" departSpeed="0.00" departDelay="0.00" arrival="353.00" arrivalLane="B0bottom1_0" arrivalPos="286.40" arrivalSpeed="12.37" duration="89.00" routeLength="876.90" waitingTime="11.00" waitingCount="1" stopTime="0.00" timeLoss="23.91" rerouteNo="0" devices="tripinfo_44" vType="DEFAULT_VEHTYPE" speedFactor="0.98" vaporized=""/>
    <tripinfo id="54" depart="313.00" departLane="left0A0_0" departPos="5.10" departSpeed="0.00" departDelay="0.00" arrival="365.00" arrivalLane="A0bottom0_0" arrivalPos="286.40" arrivalSpeed="14.13" duration="52.00" routeLength="576.73" waitingTime="1.00" waitingCount="1" stopTime="0.00" timeLoss="11.42" rerouteNo="0" devices="tripinfo_54" vType="DEFAULT_VEHTYPE" speedFactor="1.05" vaporized=""/>
    <tripinfo id="47" depart="278.00" departLane="left0A0_0" departPos="5.10" departSpeed="0.00" departDelay="0.00" arrival="381.00" arrivalLane="A1left1_0" arrivalPos="286.40" arrivalSpeed="12.82" duration="103.00" routeLength="894.86" waitingTime="21.00" waitingCount="1" stopTime="0.00" timeLoss="33.32" rerouteNo="0" devices="tripinfo_47" vType="DEFAULT_VEHTYPE" speedFactor="0.95" vaporized=""/>
    <tripinfo id="11" depart="72.00" departLane="left2A2_0" departPos="5.10" departSpeed="0.00" departDelay="0.00" arrival="382.00" arrivalLane="D0right0_0" arrivalPos="286.40" arrivalSpeed="11.58" duration="310.00" routeLength="2082.76" waitingTime="105.00" waitingCount="4" stopTime="0.00" timeLoss="140.31" rerouteNo="0" devices="tripinfo_11" vType="DEFAULT_VEHTYPE" speedFactor="0.89" vaporized=""/>
    <tripinfo id="22" depart="160.00" departLane="right2D2_0" departPos="5.10" departSpeed="0.00" departDelay="0.00" arrival="388.00" arrivalLane="B3top1_0" arrivalPos="286.40" arrivalSpeed="13.81" duration="228.00" routeLength="1479.94" waitingTime="103.00" waitingCount="3" stopTime="0.00" timeLoss="126.23" rerouteNo="0" devices="tripinfo_22" vType="DEFAULT_VEHTYPE" speedFactor="1.06" vaporized=""/>
    <tripinfo id="30" depart="223.00" departLane="left1A1_0" departPos="5.10" departSpeed="0.00" departDelay="0.00" arrival="389.00" arrivalLane="B3top1_0" arrivalPos="286.40" arrivalSpeed="14.17" duration="166.00" routeLength="1495.35" waitingTime="39.00" waitingCount="3" stopTime="0.00" timeLoss="65.31" rerouteNo="0" devices="tripinfo_30" vType="DEFAULT_VEHTYPE" speedFactor="1.08" vaporized=""/>
    <tripinfo id="41" depart="252.00" departLane="left2A2_0" departPos="5.10" departSpeed="0.00" departDelay="0.00" arrival="392.00" arrivalLane="A0left0_0" arrivalPos="286.40" arrivalSpeed="11.16" duration="140.00" routeLength="1161.43" waitingTime="24.00" waitingCount="3" stopTime="0.00" timeLoss="43.27" rerouteNo="0" devices="tripinfo_41" vType="DEFAULT_VEHTYPE" speedFactor="0.88" vaporized=""/>
    <tripinfo id="55" depart="315.00" departLane="right0D0_0" departPos="5.10" departSpeed="0.00" departDelay="0.00" arrival="394.00" arrivalLane="D1right1_0" arrivalPos="286.40" arrivalSpeed="14.21" duration="79.00" routeLength="858.56" waitingTime="2.00" waitingCount="2" stopTime="0.00" timeLoss="18.55" rerouteNo="0" devices="tripinfo_55" vType="DEFAULT_VEHTYPE" speedFactor="1.05" vaporized=""/>
    <tripinfo id="24" depart="183.00" departLane="top0A3_0" departPos="5.10" departSpeed="0.00" departDelay="0.00" arrival="399.00" arrivalLane="A0left0_0" arrivalPos="286.40" arrivalSpeed="11.79" duration="216.00" routeLength="1477.24" waitingTime="59.00" waitingCount="4" stopTime="0.00" timeLoss="91.84" rerouteNo="0" devices="tripinfo_24" vType="DEFAULT_VEHTYPE" speedFactor="0.86" vaporized=""/>
    <tripinfo id="29" depart="220.00" departLane="left1A1_0" departPos="5.10" departSpeed="0.00" departDelay="0.00" arrival="402.00" arrivalLane="A1left1_0" arrivalPos="286.40" arrivalSpeed="13.95" duration="182.00" routeLength="1748.75" waitingTime="29.00" waitingCount="4" stopTime="0.00" timeLoss="58.12" rerouteNo="0" devices="tripinfo_29" vType="DEFAULT_VEHTYPE" speedFactor="1.04" vaporized=""/>
    <tripinfo id="27" depart="211.00" departLane="top3D3_0" departPos="5.10" departSpeed="0.00" departDelay="0.00" arrival="406.00" arrivalLane="A3top0_0" arrivalPos="286.40" arrivalSpeed="11.41" duration="195.00" routeLength="1461.60" waitingTime="42.00" waitingCount="4" stopTime="0.00" timeLoss="74.23" rerouteNo="0" devices="tripinfo_27" vType="DEFAULT_VEHTYPE" speedFactor="0.88" vaporized=""/>
    <tripinfo id="23" depart="160.00" departLane="bottom2C0_0" departPos="5.10" departSpeed="0.00" departDelay="0.00" arrival="411.00" arrivalLane="A1left1_0" arrivalPos="286.40" arrivalSpeed="11.30" duration="251.00" routeLength="1495.35" waitingTime="102.00" waitingCount="4" stopTime="0.00" timeLoss="131.44" rerouteNo="0" devices="tripinfo_23" vType="DEFAULT_VEHTYPE" speedFactor="0.90" vaporized=""/>
    <tripinfo id="58" depart="321.00" departLane="left1A1_0" departPos="5.10" departSpeed="0.00" departDelay="0.00" arrival="412.00" arrivalLane="A2left2_0" arrivalPos="286.40" arrivalSpeed="11.79" duration="91.00" routeLength="894.86" waitingTime="6.00" waitingCount="1" stopTime="0.00" timeLoss="18.25" rerouteNo="0" devices="tripinfo_58" vType="DEFAULT_VEHTYPE" speedFactor="0.91" vaporized=""/>
    <tripinfo id="37" depart="242.00" departLane="right1D1_0" departPos="5.10" departSpeed="0.00" departDelay="0.00" arrival="413.00" arrivalLane="A1left1_0" arrivalPos="286.40" arrivalSpeed="12.30" duration="171.00" routeLength="1495.58" waitingTime="24.00" waitingCount="3" stopTime="0.00" timeLoss="52.23" rerouteNo="0" devices="tripinfo_37" vType="DEFAULT_VEHTYPE" speedFactor="0.91" vaporized=""/>
    <tripinfo id="34" depart="228.00" departLane="bottom0A0_0" departPos="5.10" departSpeed="0.00" departDelay="0.00" arrival="421.00" arrivalLane="D0bottom3_0" arrivalPos="286.40" arrivalSpeed="11.63" duration="193.00" routeLength="1461.60" waitingTime="49.00" waitingCount="3" stopTime="0.00" timeLoss="72.21" rerouteNo="0" devices="tripinfo_34" vType="DEFAULT_VEHTYPE" speedFactor="0.88" vaporized=""/>
    <tripinfo id="36" depart="231.00" departLane="bottom0A0_0" departPos="5.10" departSpeed="0.00" departDelay="2.00" arrival="426.00" arrivalLane="D0right0_0" arrivalPos="286.40" arrivalSpeed="16.01" duration="195.00" routeLength="1479.94" waitingTime="58.00" waitingCount="3" stopTime="0.00" timeLoss="102.62" rerouteNo="0" devices="tripinfo_36" vType="DEFAULT_VEHTYPE" speedFactor="1.17" vaporized=""/>
    <tripinfo id="39" depart="250.00" departLane="right1D1_0" departPos="5.10" departSpeed="0.00" departDelay="0.00" arrival="439.00" arrivalLane="A0bottom0_0" arrivalPos="286.40" arrivalSpeed="14.10" duration="189.00" routeLength="1795.52" waitingTime="25.00" waitingCount="3" stopTime="0.00" timeLoss="62.70" rerouteNo="0" devices="tripinfo_39" vType="DEFAULT_VEHTYPE" speedFactor="1.03" vaporized=""/>
    <tripinfo id="53" depart="312.00" departLane="right0D0_0" departPos="5.10" departSpeed="0.00" departDelay="0.00" arrival="439.00" arrivalLane="C0bottom2_0" arrivalPos="286.40" arrivalSpeed="13.47" duration="127.00" routeLength="897.72" waitingTime="45.00" waitingCount="2" stopTime="0.00" timeLoss="63.53" rerouteNo="0" devices="tripinfo_53" vType="DEFAULT_VEHTYPE" speedFactor="1.03" vaporized=""/>
    <tripinfo id="50" depart="304.00" departLane="right3D3_0" departPos="5.10" departSpeed="0.00" departDelay="0.00" arrival="441.00" arrivalLane="D1right1_0" arrivalPos="286.40" arrivalSpeed="11.84" duration="137.00" routeLength="1197.66" waitingTime="19.00" waitingCount="2" stopTime="0.00" timeLoss="41.99" rerouteNo="0" devices="tripinfo_50" vType="DEFAULT_VEHTYPE" speedFactor="0.92" vaporized=""/>
    <tripinfo id="16" depart="104.00" departLane="right2D2_0" departPos="5.10" departSpeed="0.00" departDelay="0.00" arrival="442.00" arrivalLane="A3left3_0" arrivalPos="286.40" arrivalSpeed="10.78" duration="338.00" routeLength="1782.72" waitingTime="155.00" waitingCount="4" stopTime="0.00" timeLoss="187.64" rerouteNo="0" devices="tripinfo_16" vType="DEFAULT_VEHTYPE" speedFactor="0.86" vaporized=""/>
    <tripinfo id="72" depart="390.00" departLane="top3D3_0" departPos="5.10" departSpeed="0.00" departDelay="0.00" arrival="447.00" arrivalLane="D3right3_0" arrivalPos="286.40" arrivalSpeed="15.65" duration="57.00" routeLength="597.55" waitingTime="8.00" waitingCount="1" stopTime="0.00" timeLoss="18.74" rerouteNo="0" devices="tripinfo_72" vType="DEFAULT_VEHTYPE" speedFactor="1.15" vaporized=""/>
    <tripinfo id="59" depart="322.00" departLane="bottom1B0_0" departPos="5.10" departSpeed="0.00" departDelay="0.00" arrival="448.00" arrivalLane="A1left1_0" arrivalPos="286.40" arrivalSpeed="14.50" duration="126.00" routeLength="1195.18" waitingTime="22.00" waitingCount="3" stopTime="0.00" timeLoss="44.82" rerouteNo="0" devices="tripinfo_59" vType="DEFAULT_VEHTYPE" speedFactor="1.08" vaporized=""/>
    <tripinfo id="43" depart="260.00" departLane="bottom3D0_0" departPos="5.10" departSpeed="0.00" departDelay="0.00" arrival="456.00" arrivalLane="D3right3_0" arrivalPos="286.40" arrivalSpeed="12.62" duration="196.00" routeLength="1477.24" waitingTime="59.00" waitingCount="4" stopTime="0.00" timeLoss="87.90" rerouteNo="0" devices="tripinfo_43" vType="DEFAULT_VEHTYPE" speedFactor="0.99" vaporized=""/>
    <tripinfo id="35" depart="228.00" departLane="bottom3D0_0" departPos="5.10" departSpeed="0.00" departDelay="0.00" arrival="458.00" arrivalLane="B3top1_0" arrivalPos="286.40" arrivalSpeed="13.87" duration="230.00" routeLength="2080.05" waitingTime="45.00" waitingCount="6" stopTime="0.00" timeLoss="86.73" rerouteNo="0" devices="tripinfo_35" vType="DEFAULT_VEHTYPE" speedFactor="1.06" vaporized=""/>
    <tripinfo id="20" depart="137.00" departLane="bottom1B0_0" departPos="5.10" departSpeed="0.00" departDelay="0.00" arrival="459.00" arrivalLane="D2right2_0" arrivalPos="286.40" arrivalSpeed="14.03" duration="322.00" routeLength="1780.11" waitingTime="158.00" waitingCount="5" stopTime="0.00" timeLoss="195.78" rerouteNo="0" devices="tripinfo_20" vType="DEFAULT_VEHTYPE" speedFactor="1.03" vaporized=""/>
    <tripinfo id="70" depart="378.00" departLane="top2C3_0" departPos="5.10" departSpeed="0.00" departDelay="0.00" arrival="465.00" arrivalLane="B3top1_0" arrivalPos="286.40" arrivalSpeed="12.31" duration="87.00" routeLength="858.56" waitingTime="3.00" waitingCount="2" stopTime="0.00" timeLoss="18.42" rerouteNo="0" devices="tripinfo_70" vType="DEFAULT_VEHTYPE" speedFactor="0.93" vaporized=""/>
    <tripinfo id="28" depart="220.00" departLane="left3A3_0" departPos="5.10" departSpeed="0.00" departDelay="0.00" arrival="471.00" arrivalLane="D3top3_0" arrivalPos="286.40" arrivalSpeed="12.93" duration="251.00" routeLength="1498.06" waitingTime="113.00" waitingCount="3" stopTime="0.00" timeLoss="136.57" rerouteNo="0" devices="tripinfo_28" vType="DEFAULT_VEHTYPE" speedFactor="0.95" vaporized=""/>
    <tripinfo id="38" depart="246.00" departLane="top0A3_0" departPos="5.10" departSpeed="0.00" departDelay="0.00" arrival="473.00" arrivalLane="D3top3_0" arrivalPos="286.40" arrivalSpeed="13.26" duration="227.00" routeLength="1497.83" waitingTime="89.00" waitingCount="3" stopTime="0.00" timeLoss="112.53" rerouteNo="0" devices="tripinfo_38" vType="DEFAULT_VEHTYPE" speedFactor="0.96" vaporized=""/>
    <tripinfo id="48" depart="291.00" departLane="right3D3_0" departPos="5.10" departSpeed="0.00" departDelay="0.00" arrival="477.00" arrivalLane="D3right3_0" arrivalPos="286.40" arrivalSpeed="15.16" duration="186.00" routeLength="1745.91" waitingTime="39.00" waitingCount="5" stopTime="0.00" timeLoss="72.47" rerouteNo="0" devices="tripinfo_48" vType="DEFAULT_VEHTYPE" speedFactor="1.13" vaporized=""/>
    <tripinfo id="45" depart="269.00" departLane="left2A2_0" departPos="5.10" departSpeed="0.00" departDelay="0.00" arrival="478.00" arrivalLane="B3top1_0" arrivalPos="286.40" arrivalSpeed="11.19" duration="209.00" routeLength="1195.18" waitingTime="95.00" waitingCount="2" stopTime="0.00" timeLoss="110.51" rerouteNo="0" devices="tripinfo_45" vType="DEFAULT_VEHTYPE" speedFactor="0.88" vaporized=""/>
    <tripinfo id="63" depart="341.00" departLane="bottom1B0_0" departPos="5.10" departSpeed="0.00" departDelay="0.00" arrival="479.00" arrivalLane="D0bottom3_0" arrivalPos="286.40" arrivalSpeed="12.96" duration="138.00" routeLength="1161.43" waitingTime="29.00" waitingCount="2" stopTime="0.00" timeLoss="47.50" rerouteNo="0" devices="tripinfo_63" vType="DEFAULT_VEHTYPE" speedFactor="0.94" vaporized=""/>
    <tripinfo id="18" depart="119.00" departLane="top2C3_0" departPos="5.10" departSpeed="0.00" departDelay="0.00" arrival="480.00" arrivalLane="A0bottom0_0" arrivalPos="286.40" arrivalSpeed="12.21" duration="361.00" routeLength="2082.76" waitingTime="165.00" waitingCount="6" stopTime="0.00" timeLoss="203.80" rerouteNo="0" devices="tripinfo_18" vType="DEFAULT_VEHTYPE" speedFactor="0.96" vaporized=""/>
    <tripinfo id="25" depart="183.00" departLane="top2C3_0" departPos="5.10" departSpeed="0.00" departDelay="0.00" arrival="481.00" arrivalLane="A0left0_0" arrivalPos="286.40" arrivalSpeed="11.21" duration="298.00" routeLength="2080.28" waitingTime="84.00" waitingCount="4" stopTime="0.00" timeLoss="123.28" rerouteNo="0" devices="tripinfo_25" vType="DEFAULT_VEHTYPE" speedFactor="0.86" vaporized=""/>
    <tripinfo id="69" depart="371.00" departLane="bottom1B0_0" departPos="5.10" departSpeed="0.00" departDelay="0.00" arrival="481.00" arrivalLane="D0bottom3_0" arrivalPos="286.40" arrivalSpeed="14.95" duration="110.00" routeLength="1161.43" waitingTime="4.00" waitingCount="3" stopTime="0.00" timeLoss="36.37" rerouteNo="0" devices="tripinfo_69" vType="DEFAULT_VEHTYPE" speedFactor="1.16" vaporized=""/>
    <tripinfo id="74" depart="400.00" departLane="top3D3_0" departPos="5.10" departSpeed="0.00" departDelay="0.00" arrival="483.00" arrivalLane="C3top2_0" arrivalPos="286.40" arrivalSpeed="12.81" duration="83.00" routeLength="858.56" waitingTime="1.00" waitingCount="1" stopTime="0.00" timeLoss="15.39" rerouteNo="0" devices="tripinfo_74" vType="DEFAULT_VEHTYPE" speedFactor="0.94" vaporized=""/>
    <tripinfo id="26" depart="187.00" departLane="top2C3_0" departPos="5.10" departSpeed="0.00" departDelay="0.00" arrival="484.00" arrivalLane="A0bottom0_0" arrivalPos="286.40" arrivalSpeed="12.41" duration="297.00" routeLength="2082.76" waitingTime="79.00" waitingCount="4" stopTime="0.00" timeLoss="127.62" rerouteNo="0" devices="tripinfo_26" vType="DEFAULT_VEHTYPE" speedFactor="0.89" vaporized=""/>
    <tripinfo id="86" depart="431.00" departLane="left3A3_0" departPos="5.10" departSpeed="0.00" departDelay="0.00" arrival="500.00" arrivalLane="A3top0_0" arrivalPos="286.40" arrivalSpeed="12.79" duration="69.00" routeLength="597.55" waitingTime="14.00" waitingCount="1" stopTime="0.00" timeLoss="24.31" rerouteNo="0" devices="tripinfo_86" vType="DEFAULT_VEHTYPE" speedFactor="0.98" vaporized=""/>
    <tripinfo id="42" depart="259.00" departLane="top2C3_0" departPos="5.10" departSpeed="0.00" departDelay="0.00" arrival="507.00" arrivalLane="D0bottom3_0" arrivalPos="286.40" arrivalSpeed="13.98" duration="248.00" routeLength="1782.59" waitingTime="89.00" waitingCount="5" stopTime="0.00" timeLoss="129.96" rerouteNo="0" devices="tripinfo_42" vType="DEFAULT_VEHTYPE" speedFactor="1.10" vaporized=""/>
    <tripinfo id="90" depart="440.00" departLane="left3A3_0" departPos="5.10" departSpeed="0.00" departDelay="0.00" arrival="511.00" arrivalLane="A2left2_0" arrivalPos="286.40" arrivalSpeed="15.24" duration="71.00" routeLength="858.56" waitingTime="1.00" waitingCount="1" stopTime="0.00" timeLoss="15.19" rerouteNo="0" devices="tripinfo_90" vType="DEFAULT_VEHTYPE" speedFactor="1.14" vaporized=""/>
    <tripinfo id="68" depart="364.00" departLane="bottom3D0_0" departPos="5.10" departSpeed="0.00" departDelay="0.00" arrival="526.00" arrivalLane="D3top3_0" arrivalPos="286.40" arrivalSpeed="12.47" duration="162.00" routeLength="1495.58" waitingTime="20.00" waitingCount="1" stopTime="0.00" timeLoss="45.24" rerouteNo="0" devices="tripinfo_68" vType="DEFAULT_VEHTYPE" speedFactor="0.93" vaporized=""/>
    <tripinfo id="60" depart="328.00" departLane="top0A3_0" departPos="5.10" departSpeed="0.00" departDelay="0.00" arrival="528.00" arrivalLane="B0bottom1_0" arrivalPos="286.40" arrivalSpeed="14.20" duration="200.00" routeLength="1782.59" waitingTime="50.00" waitingCount="3" stopTime="0.00" timeLoss="77.84" rerouteNo="0" devices="tripinfo_60" vType="DEFAULT_VEHTYPE" speedFactor="1.06" vaporized=""/>
    <tripinfo id="61" depart="331.00" departLane="bottom3D0_0" departPos="5.10" departSpeed="0.00" departDelay="0.00" arrival="528.00" arrivalLane="A1left1_0" arrivalPos="286.40" arrivalSpeed="13.59" duration="197.00" routeLength="1795.52" waitingTime="37.00" waitingCount="5" stopTime="0.00" timeLoss="72.75" rerouteNo="0" devices="tripinfo_61" vType="DEFAULT_VEHTYPE" speedFactor="1.05" vaporized=""/>
    <tripinfo id="66" depart="361.00" departLane="bottom1B0_0" departPos="5.10" departSpeed="0.00" departDelay="0.00" arrival="531.00" arrivalLane="D0right0_0" arrivalPos="286.40" arrivalSpeed="12.25" duration="170.00" routeLength="1179.77" waitingTime="50.00" waitingCount="3" stopTime="0.00" timeLoss="73.42" rerouteNo="0" devices="tripinfo_66" vType="DEFAULT_VEHTYPE" speedFactor="0.89" vaporized=""/>
    <tripinfo id="51" depart="308.00" departLane="top2C3_0" departPos="5.10" departSpeed="0.00" departDelay="0.00" arrival="538.00" arrivalLane="C3top2_0" arrivalPos="286.40" arrivalSpeed="13.96" duration="230.00" routeLength="1748.75" waitingTime="73.00" waitingCount="4" stopTime="0.00" timeLoss="106.02" rerouteNo="0" devices="tripinfo_51" vType="DEFAULT_VEHTYPE" speedFactor="1.03" vaporized=""/>
    <tripinfo id="84" depart="425.00" departLane="left1A1_0" departPos="5.10" departSpeed="0.00" departDelay="0.00" arrival="548.00" arrivalLane="B0bottom1_0" arrivalPos="286.40" arrivalSpeed="13.92" duration="123.00" routeLength="1179.77" waitingTime="19.00" waitingCount="1" stopTime="0.00" timeLoss="39.45" rerouteNo="0" devices="tripinfo_84" vType="DEFAULT_VEHTYPE" speedFactor="1.03" vaporized=""/>
    <tripinfo id="52" depart="311.00" departLane="top1B3_0" departPos="5.10" departSpeed="0.00" departDelay="0.00" arrival="549.00" arrivalLane="D3top3_0" arrivalPos="286.40" arrivalSpeed="8.51" duration="238.00" routeLength="1197.66" waitingTime="94.00" waitingCount="3" stopTime="0.00" timeLoss="114.22" rerouteNo="0" devices="tripinfo_52" vType="DEFAULT_VEHTYPE" speedFactor="0.70" vaporized=""/>
    <tripinfo id="81" depart="414.00" departLane="bottom3D0_0" departPos="5.10" departSpeed="0.00" departDelay="0.00" arrival="550.00" arrivalLane="C0bottom2_1" arrivalPos="286.40" arrivalSpeed="14.73" duration="136.00" routeLength="894.86" waitingTime="57.00" waitingCount="2" stopTime="0.00" timeLoss="74.48" rerouteNo="0" devices="tripinfo_81" vType="DEFAULT_VEHTYPE" speedFactor="1.07" vaporized=""/>
    <tripinfo id="75" depart="401.00" departLane="bottom3D0_0" departPos="5.10" departSpeed="0.00" departDelay="0.00" arrival="551.00" arrivalLane="C0bottom2_0" arrivalPos="286.40" arrivalSpeed="12.25" duration="150.00" routeLength="894.86" waitingTime="67.00" waitingCount="2" stopTime="0.00" timeLoss="81.21" rerouteNo="0" devices="tripinfo_75" vType="DEFAULT_VEHTYPE" speedFactor="0.96" vaporized=""/>
    <tripinfo id="56" depart="317.00" departLane="right3D3_0" departPos="5.10" departSpeed="0.00" departDelay="0.00" arrival="561.00" arrivalLane="A1left1_0" arrivalPos="286.40" arrivalSpeed="13.95" duration="244.00" routeLength="2080.05" waitingTime="60.00" waitingCount="4" stopTime="0.00" timeLoss="93.90" rerouteNo="0" devices="tripinfo_56" vType="DEFAULT_VEHTYPE" speedFactor="1.01" vaporized=""/>