<?xml version="1.0" encoding="UTF-8"?>

<!-- generated on 12/19/21 17:29:02 by Eclipse SUMO sumo Version 1.7.0
<configuration xmlns:xsi="http://www.w3.org/2001/XMLSchema-instance" xsi:noNamespaceSchemaLocation="http://sumo.dlr.de/xsd/sumoConfiguration.xsd">

    <input>
        <net-file value="C:\Users\longs\Desktop\RESCO-main\environments\grid4x4\grid4x4.net.xml"/>
        <route-files value="C:\Users\longs\Desktop\RESCO-main\environments\grid4x4\grid4x4_8.rou.xml"/>
    </input>

    <output>
        <tripinfo-output value="C:\Users\longs\Desktop\RESCO-main\logs\IDQN-tr1-grid4x4-0-drqlong-delaydiff_pressure09\tripinfo_8.xml"/>
        <tripinfo-output.write-unfinished value="true"/>
    </output>

    <processing>
        <time-to-teleport value="-1"/>
    </processing>

    <report>
        <no-warnings value="true"/>
        <no-step-log value="true"/>
    </report>

    <traci_server>
        <remote-port value="57236"/>
    </traci_server>

    <random_number>
        <random value="true"/>
    </random_number>

</configuration>
-->

<tripinfos xmlns:xsi="http://www.w3.org/2001/XMLSchema-instance" xsi:noNamespaceSchemaLocation="http://sumo.dlr.de/xsd/tripinfo_file.xsd">
    <tripinfo id="5" depart="27.00" departLane="left1A1_0" departPos="5.10" departSpeed="0.00" departDelay="0.00" arrival="109.00" arrivalLane="A0left0_0" arrivalPos="286.40" arrivalSpeed="13.41" duration="82.00" routeLength="858.56" waitingTime="2.00" waitingCount="2" stopTime="0.00" timeLoss="17.44" rerouteNo="0" devices="tripinfo_5" vType="DEFAULT_VEHTYPE" speedFactor="0.97" vaporized=""/>
    <tripinfo id="9" depart="53.00" departLane="bottom1B0_0" departPos="5.10" departSpeed="0.00" departDelay="0.00" arrival="157.00" arrivalLane="A0bottom0_0" arrivalPos="286.40" arrivalSpeed="14.52" duration="104.00" routeLength="894.86" waitingTime="32.00" waitingCount="1" stopTime="0.00" timeLoss="44.43" rerouteNo="0" devices="tripinfo_9" vType="DEFAULT_VEHTYPE" speedFactor="1.10" vaporized=""/>
    <tripinfo id="10" depart="60.00" departLane="right1D1_0" departPos="5.10" departSpeed="0.00" departDelay="0.00" arrival="177.00" arrivalLane="C0bottom2_0" arrivalPos="286.40" arrivalSpeed="15.17" duration="117.00" routeLength="1195.18" waitingTime="22.00" waitingCount="2" stopTime="0.00" timeLoss="39.77" rerouteNo="0" devices="tripinfo_10" vType="DEFAULT_VEHTYPE" speedFactor="1.13" vaporized=""/>
    <tripinfo id="4" depart="20.00" departLane="right3D3_0" departPos="5.10" departSpeed="0.00" departDelay="0.00" arrival="180.00" arrivalLane="B3top1_0" arrivalPos="286.40" arrivalSpeed="16.50" duration="160.00" routeLength="1177.07" waitingTime="63.00" waitingCount="3" stopTime="0.00" timeLoss="88.29" rerouteNo="0" devices="tripinfo_4" vType="DEFAULT_VEHTYPE" speedFactor="1.19" vaporized=""/>
    <tripinfo id="23" depart="91.00" departLane="top2C3_0" departPos="5.10" departSpeed="0.00" departDelay="0.00" arrival="180.00" arrivalLane="D3right3_0" arrivalPos="286.40" arrivalSpeed="12.42" duration="89.00" routeLength="895.01" waitingTime="11.00" waitingCount="1" stopTime="0.00" timeLoss="21.21" rerouteNo="0" devices="tripinfo_23" vType="DEFAULT_VEHTYPE" speedFactor="0.97" vaporized=""/>
    <tripinfo id="12" depart="68.00" departLane="bottom0A0_0" departPos="5.10" departSpeed="0.00" departDelay="0.00" arrival="187.00" arrivalLane="A1left1_0" arrivalPos="286.40" arrivalSpeed="15.02" duration="119.00" routeLength="897.72" waitingTime="44.00" waitingCount="1" stopTime="0.00" timeLoss="59.49" rerouteNo="0" devices="tripinfo_12" vType="DEFAULT_VEHTYPE" speedFactor="1.10" vaporized=""/>
    <tripinfo id="11" depart="67.00" departLane="right0D0_0" departPos="5.10" departSpeed="0.00" departDelay="0.00" arrival="199.00" arrivalLane="D2right2_0" arrivalPos="286.40" arrivalSpeed="12.89" duration="132.00" routeLength="1161.43" waitingTime="21.00" waitingCount="3" stopTime="0.00" timeLoss="46.33" rerouteNo="0" devices="tripinfo_11" vType="DEFAULT_VEHTYPE" speedFactor="0.99" vaporized=""/>
    <tripinfo id="35" depart="144.00" departLane="left3A3_0" departPos="5.10" departSpeed="0.00" departDelay="0.00" arrival="207.00" arrivalLane="A3top0_0" arrivalPos="286.40" arrivalSpeed="15.27" duration="63.00" routeLength="597.55" waitingTime="12.00" waitingCount="1" stopTime="0.00" timeLoss="23.77" rerouteNo="0" devices="tripinfo_35" vType="DEFAULT_VEHTYPE" speedFactor="1.13" vaporized=""/>
    <tripinfo id="8" depart="43.00" departLane="bottom3D0_0" departPos="5.10" departSpeed="0.00" departDelay="3.00" arrival="211.00" arrivalLane="A0left0_0" arrivalPos="286.40" arrivalSpeed="11.77" duration="168.00" routeLength="1495.35" waitingTime="29.00" waitingCount="2" stopTime="0.00" timeLoss="51.38" rerouteNo="0" devices="tripinfo_8" vType="DEFAULT_VEHTYPE" speedFactor="0.93" vaporized=""/>
    <tripinfo id="14" depart="72.00" departLane="bottom1B0_0" departPos="5.10" departSpeed="0.00" departDelay="0.00" arrival="222.00" arrivalLane="A0left0_0" arrivalPos="286.40" arrivalSpeed="13.42" duration="150.00" routeLength="895.01" waitingTime="73.00" waitingCount="1" stopTime="0.00" timeLoss="85.25" rerouteNo="0" devices="tripinfo_14" vType="DEFAULT_VEHTYPE" speedFactor="1.01" vaporized=""/>
    <tripinfo id="0" depart="3.00" departLane="top0A3_0" departPos="5.10" departSpeed="0.00" departDelay="0.00" arrival="248.00" arrivalLane="D3top3_0" arrivalPos="286.40" arrivalSpeed="15.28" duration="245.00" routeLength="1497.83" waitingTime="116.00" waitingCount="4" stopTime="0.00" timeLoss="145.77" rerouteNo="0" devices="tripinfo_0" vType="DEFAULT_VEHTYPE" speedFactor="1.10" vaporized=""/>
    <tripinfo id="7" depart="40.00" departLane="bottom3D0_0" departPos="5.10" departSpeed="0.00" departDelay="0.00" arrival="252.00" arrivalLane="D0bottom3_0" arrivalPos="286.40" arrivalSpeed="10.70" duration="212.00" routeLength="1745.91" waitingTime="35.00" waitingCount="4" stopTime="0.00" timeLoss="63.33" rerouteNo="0" devices="tripinfo_7" vType="DEFAULT_VEHTYPE" speedFactor="0.86" vaporized=""/>
    <tripinfo id="25" depart="95.00" departLane="bottom1B0_0" departPos="5.10" departSpeed="0.00" departDelay="0.00" arrival="252.00" arrivalLane="A0left0_0" arrivalPos="286.40" arrivalSpeed="12.17" duration="157.00" routeLength="895.01" waitingTime="65.00" waitingCount="2" stopTime="0.00" timeLoss="83.67" rerouteNo="0" devices="tripinfo_25" vType="DEFAULT_VEHTYPE" speedFactor="0.89" vaporized=""/>
    <tripinfo id="28" depart="117.00" departLane="right0D0_0" departPos="5.10" departSpeed="0.00" departDelay="0.00" arrival="258.00" arrivalLane="B0bottom1_0" arrivalPos="286.40" arrivalSpeed="14.44" duration="141.00" routeLength="1197.89" waitingTime="41.00" waitingCount="2" stopTime="0.00" timeLoss="58.96" rerouteNo="0" devices="tripinfo_28" vType="DEFAULT_VEHTYPE" speedFactor="1.06" vaporized=""/>
    <tripinfo id="26" depart="103.00" departLane="bottom2C0_0" departPos="5.10" departSpeed="0.00" departDelay="0.00" arrival="261.00" arrivalLane="C0bottom2_0" arrivalPos="286.40" arrivalSpeed="14.32" duration="158.00" routeLength="1748.75" waitingTime="7.00" waitingCount="3" stopTime="0.00" timeLoss="38.67" rerouteNo="0" devices="tripinfo_26" vType="DEFAULT_VEHTYPE" speedFactor="1.07" vaporized=""/>
    <tripinfo id="24" depart="94.00" departLane="top2C3_0" departPos="5.10" departSpeed="0.00" departDelay="2.00" arrival="270.00" arrivalLane="C3top2_0" arrivalPos="286.40" arrivalSpeed="13.21" duration="176.00" routeLength="1748.75" waitingTime="21.00" waitingCount="2" stopTime="0.00" timeLoss="41.76" rerouteNo="0" devices="tripinfo_24" vType="DEFAULT_VEHTYPE" speedFactor="0.96" vaporized=""/>
    <tripinfo id="31" depart="135.00" departLane="top0A3_0" departPos="5.10" departSpeed="0.00" departDelay="0.00" arrival="272.00" arrivalLane="D3right3_0" arrivalPos="286.40" arrivalSpeed="13.20" duration="137.00" routeLength="1495.35" waitingTime="11.00" waitingCount="1" stopTime="0.00" timeLoss="26.56" rerouteNo="0" devices="tripinfo_31" vType="DEFAULT_VEHTYPE" speedFactor="0.98" vaporized=""/>
    <tripinfo id="27" depart="115.00" departLane="top3D3_0" departPos="5.10" departSpeed="0.00" departDelay="0.00" arrival="273.00" arrivalLane="D1right1_0" arrivalPos="286.40" arrivalSpeed="12.35" duration="158.00" routeLength="1197.89" waitingTime="51.00" waitingCount="2" stopTime="0.00" timeLoss="68.96" rerouteNo="0" devices="tripinfo_27" vType="DEFAULT_VEHTYPE" speedFactor="0.97" vaporized=""/>
    <tripinfo id="48" depart="228.00" departLane="bottom0A0_0" departPos="5.10" departSpeed="0.00" departDelay="0.00" arrival="273.00" arrivalLane="A0left0_0" arrivalPos="286.40" arrivalSpeed="14.66" duration="45.00" routeLength="597.55" waitingTime="0.00" waitingCount="0" stopTime="0.00" timeLoss="5.39" rerouteNo="0" devices="tripinfo_48" vType="DEFAULT_VEHTYPE" speedFactor="1.12" vaporized=""/>
    <tripinfo id="22" depart="90.00" departLane="left3A3_0" departPos="5.10" departSpeed="0.00" departDelay="0.00" arrival="274.00" arrivalLane="A1left1_0" arrivalPos="286.40" arrivalSpeed="14.89" duration="184.00" routeLength="1161.43" waitingTime="84.00" waitingCount="3" stopTime="0.00" timeLoss="105.26" rerouteNo="0" devices="tripinfo_22" vType="DEFAULT_VEHTYPE" speedFactor="1.09" vaporized=""/>
    <tripinfo id="6" depart="29.00" departLane="bottom1B0_0" departPos="5.10" departSpeed="0.00" departDelay="0.00" arrival="278.00" arrivalLane="C3top2_0" arrivalPos="286.40" arrivalSpeed="13.63" duration="249.00" routeLength="1782.72" waitingTime="88.00" waitingCount="5" stopTime="0.00" timeLoss="124.99" rerouteNo="0" devices="tripinfo_6" vType="DEFAULT_VEHTYPE" speedFactor="1.05" vaporized=""/>
    <tripinfo id="17" depart="77.00" departLane="bottom3D0_0" departPos="5.10" departSpeed="0.00" departDelay="0.00" arrival="278.00" arrivalLane="D3right3_0" arrivalPos="286.40" arrivalSpeed="13.13" duration="201.00" routeLength="1477.24" waitingTime="62.00" waitingCount="4" stopTime="0.00" timeLoss="91.33" rerouteNo="0" devices="tripinfo_17" vType="DEFAULT_VEHTYPE" speedFactor="0.98" vaporized=""/>
    <tripinfo id="2" depart="11.00" departLane="bottom0A0_0" departPos="5.10" departSpeed="0.00" departDelay="0.00" arrival="279.00" arrivalLane="A3left3_0" arrivalPos="286.40" arrivalSpeed="13.43" duration="268.00" routeLength="1498.06" waitingTime="135.00" waitingCount="2" stopTime="0.00" timeLoss="156.43" rerouteNo="0" devices="tripinfo_2" vType="DEFAULT_VEHTYPE" speedFactor="0.97" vaporized=""/>
    <tripinfo id="13" depart="71.00" departLane="bottom3D0_0" departPos="5.10" departSpeed="0.00" departDelay="0.00" arrival="283.00" arrivalLane="D3top3_0" arrivalPos="286.40" arrivalSpeed="11.51" duration="212.00" routeLength="1495.58" waitingTime="64.00" waitingCount="3" stopTime="0.00" timeLoss="86.54" rerouteNo="0" devices="tripinfo_13" vType="DEFAULT_VEHTYPE" speedFactor="0.86" vaporized=""/>
    <tripinfo id="16" depart="74.00" departLane="left2A2_0" departPos="5.10" departSpeed="0.00" departDelay="0.00" arrival="296.00" arrivalLane="A2left2_0" arrivalPos="286.40" arrivalSpeed="15.48" duration="222.00" routeLength="1748.75" waitingTime="76.00" waitingCount="3" stopTime="0.00" timeLoss="109.64" rerouteNo="0" devices="tripinfo_16" vType="DEFAULT_VEHTYPE" speedFactor="1.14" vaporized=""/>
    <tripinfo id="39" depart="184.00" departLane="top3D3_0" departPos="5.10" departSpeed="0.00" departDelay="0.00" arrival="296.00" arrivalLane="B3top1_0" arrivalPos="286.40" arrivalSpeed="11.56" duration="112.00" routeLength="1161.43" waitingTime="1.00" waitingCount="1" stopTime="0.00" timeLoss="16.67" rerouteNo="0" devices="tripinfo_39" vType="DEFAULT_VEHTYPE" speedFactor="0.89" vaporized=""/>
    <tripinfo id="20" depart="84.00" departLane="left2A2_0" departPos="5.10" departSpeed="0.00" departDelay="3.00" arrival="308.00" arrivalLane="D2right2_0" arrivalPos="286.40" arrivalSpeed="14.59" duration="224.00" routeLength="1495.58" waitingTime="87.00" waitingCount="4" stopTime="0.00" timeLoss="122.63" rerouteNo="0" devices="tripinfo_20" vType="DEFAULT_VEHTYPE" speedFactor="1.07" vaporized=""/>
    <tripinfo id="21" depart="87.00" departLane="left2A2_0" departPos="5.10" departSpeed="0.00" departDelay="1.00" arrival="309.00" arrivalLane="C3top2_1" arrivalPos="286.40" arrivalSpeed="14.52" duration="222.00" routeLength="1495.35" waitingTime="83.00" waitingCount="4" stopTime="0.00" timeLoss="124.77" rerouteNo="0" devices="tripinfo_21" vType="DEFAULT_VEHTYPE" speedFactor="1.12" vaporized=""/>
    <tripinfo id="19" depart="81.00" departLane="left2A2_0" departPos="5.10" departSpeed="0.00" departDelay="3.00" arrival="310.00" arrivalLane="C3top2_0" arrivalPos="286.40" arrivalSpeed="12.82" duration="229.00" routeLength="1495.35" waitingTime="92.00" waitingCount="3" stopTime="0.00" timeLoss="115.80" rerouteNo="0" devices="tripinfo_19" vType="DEFAULT_VEHTYPE" speedFactor="0.96" vaporized=""/>
    <tripinfo id="37" depart="156.00" departLane="left0A0_0" departPos="5.10" departSpeed="0.00" departDelay="0.00" arrival="317.00" arrivalLane="A3left3_0" arrivalPos="286.40" arrivalSpeed="14.82" duration="161.00" routeLength="1497.83" waitingTime="40.00" waitingCount="3" stopTime="0.00" timeLoss="61.91" rerouteNo="0" devices="tripinfo_37" vType="DEFAULT_VEHTYPE" speedFactor="1.10" vaporized=""/>
    <tripinfo id="32" depart="137.00" departLane="right2D2_0" departPos="5.10" departSpeed="0.00" departDelay="0.00" arrival="319.00" arrivalLane="A2left2_1" arrivalPos="286.40" arrivalSpeed="14.50" duration="182.00" routeLength="1495.58" waitingTime="53.00" waitingCount="4" stopTime="0.00" timeLoss="86.26" rerouteNo="0" devices="tripinfo_32" vType="DEFAULT_VEHTYPE" speedFactor="1.13" vaporized=""/>
    <tripinfo id="33" depart="140.00" departLane="right2D2_0" departPos="5.10" departSpeed="0.00" departDelay="1.00" arrival="320.00" arrivalLane="A3top0_1" arrivalPos="286.40" arrivalSpeed="13.52" duration="180.00" routeLength="1780.11" waitingTime="17.00" waitingCount="5" stopTime="0.00" timeLoss="56.55" rerouteNo="0" devices="tripinfo_33" vType="DEFAULT_VEHTYPE" speedFactor="1.04" vaporized=""/>
    <tripinfo id="44" depart="213.00" departLane="bottom0A0_0" departPos="5.10" departSpeed="0.00" departDelay="0.00" arrival="320.00" arrivalLane="C0bottom2_0" arrivalPos="286.40" arrivalSpeed="14.54" duration="107.00" routeLength="1161.43" waitingTime="8.00" waitingCount="2" stopTime="0.00" timeLoss="27.66" rerouteNo="0" devices="tripinfo_44" vType="DEFAULT_VEHTYPE" speedFactor="1.08" vaporized=""/>
    <tripinfo id="36" depart="149.00" departLane="top1B3_0" departPos="5.10" departSpeed="0.00" departDelay="0.00" arrival="321.00" arrivalLane="A2left2_0" arrivalPos="286.40" arrivalSpeed="11.58" duration="172.00" routeLength="1179.77" waitingTime="55.00" waitingCount="3" stopTime="0.00" timeLoss="78.30" rerouteNo="0" devices="tripinfo_36" vType="DEFAULT_VEHTYPE" speedFactor="0.92" vaporized=""/>
    <tripinfo id="3" depart="11.00" departLane="left1A1_0" departPos="5.10" departSpeed="0.00" departDelay="0.00" arrival="323.00" arrivalLane="A3top0_0" arrivalPos="286.40" arrivalSpeed="10.43" duration="312.00" routeLength="1195.18" waitingTime="186.00" waitingCount="3" stopTime="0.00" timeLoss="208.55" rerouteNo="0" devices="tripinfo_3" vType="DEFAULT_VEHTYPE" speedFactor="0.84" vaporized=""/>
    <tripinfo id="30" depart="123.00" departLane="top2C3_0" departPos="5.10" departSpeed="0.00" departDelay="0.00" arrival="340.00" arrivalLane="A0left0_0" arrivalPos="286.40" arrivalSpeed="12.42" duration="217.00" routeLength="2080.28" waitingTime="32.00" waitingCount="4" stopTime="0.00" timeLoss="63.76" rerouteNo="0" devices="tripinfo_30" vType="DEFAULT_VEHTYPE" speedFactor="0.99" vaporized=""/>
    <tripinfo id="1" depart="5.00" departLane="top1B3_0" departPos="5.10" departSpeed="0.00" departDelay="0.00" arrival="344.00" arrivalLane="D0bottom3_0" arrivalPos="286.40" arrivalSpeed="10.36" duration="339.00" routeLength="2080.05" waitingTime="111.00" waitingCount="6" stopTime="0.00" timeLoss="151.87" rerouteNo="0" devices="tripinfo_1" vType="DEFAULT_VEHTYPE" speedFactor="0.81" vaporized=""/>
    <tripinfo id="29" depart="120.00" departLane="top1B3_0" departPos="5.10" departSpeed="0.00" departDelay="0.00" arrival="354.00" arrivalLane="A0left0_0" arrivalPos="286.40" arrivalSpeed="12.22" duration="234.00" routeLength="1780.11" waitingTime="76.00" waitingCount="3" stopTime="0.00" timeLoss="100.99" rerouteNo="0" devices="tripinfo_29" vType="DEFAULT_VEHTYPE" speedFactor="0.97" vaporized=""/>
    <tripinfo id="47" depart="227.00" departLane="bottom1B0_0" departPos="5.10" departSpeed="0.00" departDelay="0.00" arrival="355.00" arrivalLane="D0bottom3_0" arrivalPos="286.40" arrivalSpeed="9.88" duration="128.00" routeLength="1161.43" waitingTime="1.00" waitingCount="1" stopTime="0.00" timeLoss="20.07" rerouteNo="0" devices="tripinfo_47" vType="DEFAULT_VEHTYPE" speedFactor="0.79" vaporized=""/>
    <tripinfo id="56" depart="264.00" departLane="top1B3_0" departPos="5.10" departSpeed="0.00" departDelay="0.00" arrival="359.00" arrivalLane="C3top2_0" arrivalPos="286.40" arrivalSpeed="13.13" duration="95.00" routeLength="894.86" waitingTime="17.00" waitingCount="1" stopTime="0.00" timeLoss="30.40" rerouteNo="0" devices="tripinfo_56" vType="DEFAULT_VEHTYPE" speedFactor="1.02" vaporized=""/>
    <tripinfo id="18" depart="78.00" departLane="left2A2_0" departPos="5.10" departSpeed="0.00" departDelay="0.00" arrival="362.00" arrivalLane="D1right1_0" arrivalPos="286.40" arrivalSpeed="11.66" duration="284.00" routeLength="1782.72" waitingTime="108.00" waitingCount="4" stopTime="0.00" timeLoss="138.74" rerouteNo="0" devices="tripinfo_18" vType="DEFAULT_VEHTYPE" speedFactor="0.89" vaporized=""/>
    <tripinfo id="45" depart="214.00" departLane="left1A1_0" departPos="5.10" departSpeed="0.00" departDelay="0.00" arrival="370.00" arrivalLane="C3top2_0" arrivalPos="286.40" arrivalSpeed="14.67" duration="156.00" routeLength="1795.52" waitingTime="20.00" waitingCount="1" stopTime="0.00" timeLoss="34.01" rerouteNo="0" devices="tripinfo_45" vType="DEFAULT_VEHTYPE" speedFactor="1.07" vaporized=""/>
    <tripinfo id="70" depart="306.00" departLane="bottom3D0_0" departPos="5.10" departSpeed="0.00" departDelay="0.00" arrival="381.00" arrivalLane="C0bottom2_0" arrivalPos="286.40" arrivalSpeed="13.80" duration="75.00" routeLength="894.86" waitingTime="0.00" waitingCount="0" stopTime="0.00" timeLoss="10.96" rerouteNo="0" devices="tripinfo_70" vType="DEFAULT_VEHTYPE" speedFactor="1.03" vaporized=""/>
    <tripinfo id="66" depart="299.00" departLane="top3D3_0" departPos="5.10" departSpeed="0.00" departDelay="0.00" arrival="387.00" arrivalLane="C3top2_0" arrivalPos="286.40" arrivalSpeed="12.15" duration="88.00" routeLength="858.56" waitingTime="2.00" waitingCount="2" stopTime="0.00" timeLoss="18.04" rerouteNo="0" devices="tripinfo_66" vType="DEFAULT_VEHTYPE" speedFactor="0.90" vaporized=""/>
    <tripinfo id="15" depart="73.00" departLane="right0D0_0" departPos="5.10" departSpeed="0.00" departDelay="0.00" arrival="391.00" arrivalLane="A2left2_0" arrivalPos="286.40" arrivalSpeed="12.17" duration="318.00" routeLength="2082.76" waitingTime="125.00" waitingCount="5" stopTime="0.00" timeLoss="160.19" rerouteNo="0" devices="tripinfo_15" vType="DEFAULT_VEHTYPE" speedFactor="0.96" vaporized=""/>
    <tripinfo id="49" depart="231.00" departLane="bottom0A0_0" departPos="5.10" departSpeed="0.00" departDelay="2.00" arrival="397.00" arrivalLane="A1left1_0" arrivalPos="286.40" arrivalSpeed="14.10" duration="166.00" routeLength="897.72" waitingTime="89.00" waitingCount="2" stopTime="0.00" timeLoss="105.80" rerouteNo="0" devices="tripinfo_49" vType="DEFAULT_VEHTYPE" speedFactor="1.08" vaporized=""/>
    <tripinfo id="62" depart="283.00" departLane="top2C3_0" departPos="5.10" departSpeed="0.00" departDelay="0.00" arrival="401.00" arrivalLane="D3top3_0" arrivalPos="286.40" arrivalSpeed="12.75" duration="118.00" routeLength="894.86" waitingTime="33.00" waitingCount="2" stopTime="0.00" timeLoss="48.63" rerouteNo="0" devices="tripinfo_62" vType="DEFAULT_VEHTYPE" speedFactor="0.96" vaporized=""/>
    <tripinfo id="72" depart="322.00" departLane="top1B3_0" departPos="5.10" departSpeed="0.00" departDelay="0.00" arrival="406.00" arrivalLane="A3top0_0" arrivalPos="286.40" arrivalSpeed="11.90" duration="84.00" routeLength="858.56" waitingTime="0.00" waitingCount="0" stopTime="0.00" timeLoss="10.11" rerouteNo="0" devices="tripinfo_72" vType="DEFAULT_VEHTYPE" speedFactor="0.86" vaporized=""/>
    <tripinfo id="42" depart="194.00" departLane="right1D1_0" departPos="5.10" departSpeed="0.00" departDelay="0.00" arrival="418.00" arrivalLane="A0bottom0_0" arrivalPos="286.40" arrivalSpeed="14.94" duration="224.00" routeLength="1795.52" waitingTime="78.00" waitingCount="3" stopTime="0.00" timeLoss="105.12" rerouteNo="0" devices="tripinfo_42" vType="DEFAULT_VEHTYPE" speedFactor="1.10" vaporized=""/>
    <tripinfo id="69" depart="305.00" departLane="top2C3_0" departPos="5.10" departSpeed="0.00" departDelay="0.00" arrival="421.00" arrivalLane="D2right2_0" arrivalPos="286.40" arrivalSpeed="13.33" duration="116.00" routeLength="1195.18" waitingTime="19.00" waitingCount="1" stopTime="0.00" timeLoss="30.47" rerouteNo="0" devices="tripinfo_69" vType="DEFAULT_VEHTYPE" speedFactor="1.02" vaporized=""/>
    <tripinfo id="73" depart="326.00" departLane="top3D3_0" departPos="5.10" departSpeed="0.00" departDelay="0.00" arrival="423.00" arrivalLane="D3right3_0" arrivalPos="286.40" arrivalSpeed="11.27" duration="97.00" routeLength="597.55" waitingTime="37.00" waitingCount="1" stopTime="0.00" timeLoss="46.24" rerouteNo="0" devices="tripinfo_73" vType="DEFAULT_VEHTYPE" speedFactor="0.86" vaporized=""/>
    <tripinfo id="52" depart="234.00" departLane="top1B3_0" departPos="5.10" departSpeed="0.00" departDelay="0.00" arrival="424.00" arrivalLane="D1right1_1" arrivalPos="286.40" arrivalSpeed="12.48" duration="190.00" routeLength="1795.52" waitingTime="25.00" waitingCount="2" stopTime="0.00" timeLoss="53.40" rerouteNo="0" devices="tripinfo_52" vType="DEFAULT_VEHTYPE" speedFactor="0.95" vaporized=""/>
    <tripinfo id="61" depart="283.00" departLane="bottom2C0_0" departPos="5.10" departSpeed="0.00" departDelay="0.00" arrival="424.00" arrivalLane="D1right1_0" arrivalPos="286.40" arrivalSpeed="10.09" duration="141.00" routeLength="1179.77" waitingTime="17.00" waitingCount="2" stopTime="0.00" timeLoss="34.42" rerouteNo="0" devices="tripinfo_61" vType="DEFAULT_VEHTYPE" speedFactor="0.81" vaporized=""/>
    <tripinfo id="68" depart="305.00" departLane="left1A1_0" departPos="5.10" departSpeed="0.00" departDelay="0.00" arrival="426.00" arrivalLane="D1right1_0" arrivalPos="286.40" arrivalSpeed="13.41" duration="121.00" routeLength="1495.58" waitingTime="0.00" waitingCount="0" stopTime="0.00" timeLoss="9.28" rerouteNo="0" devices="tripinfo_68" vType="DEFAULT_VEHTYPE" speedFactor="0.97" vaporized=""/>
    <tripinfo id="50" depart="230.00" departLane="bottom1B0_0" departPos="5.10" departSpeed="0.00" departDelay="0.00" arrival="427.00" arrivalLane="D1right1_1" arrivalPos="286.40" arrivalSpeed="13.77" duration="197.00" routeLength="1479.94" waitingTime="76.00" waitingCount="2" stopTime="0.00" timeLoss="97.12" rerouteNo="0" devices="tripinfo_50" vType="DEFAULT_VEHTYPE" speedFactor="1.07" vaporized=""/>
    <tripinfo id="53" depart="242.00" departLane="right0D0_0" departPos="5.10" departSpeed="0.00" departDelay="0.00" arrival="428.00" arrivalLane="B0bottom1_0" arrivalPos="286.40" arrivalSpeed="14.52" duration="186.00" routeLength="1197.89" waitingTime="88.00" waitingCount="2" stopTime="0.00" timeLoss="107.61" rerouteNo="0" devices="tripinfo_53" vType="DEFAULT_VEHTYPE" speedFactor="1.11" vaporized=""/>
    <tripinfo id="86" depart="377.00" departLane="left0A0_0" departPos="5.10" departSpeed="0.00" departDelay="0.00" arrival="432.00" arrivalLane="A0bottom0_0" arrivalPos="286.40" arrivalSpeed="12.84" duration="55.00" routeLength="576.73" waitingTime="1.00" waitingCount="1" stopTime="0.00" timeLoss="10.79" rerouteNo="0" devices="tripinfo_86" vType="DEFAULT_VEHTYPE" speedFactor="0.97" vaporized=""/>
    <tripinfo id="75" depart="330.00" departLane="top2C3_0" departPos="5.10" departSpeed="0.00" departDelay="0.00" arrival="445.00" arrivalLane="A3left3_0" arrivalPos="286.40" arrivalSpeed="12.30" duration="115.00" routeLength="1179.77" waitingTime="6.00" waitingCount="2" stopTime="0.00" timeLoss="23.83" rerouteNo="0" devices="tripinfo_75" vType="DEFAULT_VEHTYPE" speedFactor="0.95" vaporized=""/>
    <tripinfo id="78" depart="351.00" departLane="left3A3_0" departPos="5.10" departSpeed="0.00" departDelay="0.00" arrival="446.00" arrivalLane="C3top2_0" arrivalPos="286.40" arrivalSpeed="16.23" duration="95.00" routeLength="1197.89" waitingTime="7.00" waitingCount="1" stopTime="0.00" timeLoss="22.43" rerouteNo="0" devices="tripinfo_78" vType="DEFAULT_VEHTYPE" speedFactor="1.21" vaporized=""/>
    <tripinfo id="80" depart="361.00" departLane="right0D0_0" departPos="5.10" departSpeed="0.00" departDelay="0.00" arrival="453.00" arrivalLane="D0bottom3_0" arrivalPos="286.40" arrivalSpeed="11.72" duration="92.00" routeLength="597.55" waitingTime="33.00" waitingCount="1" stopTime="0.00" timeLoss="42.59" rerouteNo="0" devices="tripinfo_80" vType="DEFAULT_VEHTYPE" speedFactor="0.89" vaporized=""/>
    <tripinfo id="54" depart="248.00" departLane="bottom3D0_0" departPos="5.10" departSpeed="0.00" departDelay="0.00" arrival="460.00" arrivalLane="D3top3_0" arrivalPos="286.40" arrivalSpeed="11.97" duration="212.00" routeLength="1495.58" waitingTime="64.00" waitingCount="2" stopTime="0.00" timeLoss="90.24" rerouteNo="0" devices="tripinfo_54" vType="DEFAULT_VEHTYPE" speedFactor="0.89" vaporized=""/>
    <tripinfo id="77" depart="340.00" departLane="bottom2C0_0" departPos="5.10" departSpeed="0.00" departDelay="0.00" arrival="460.00" arrivalLane="D0right0_0" arrivalPos="286.40" arrivalSpeed="11.84" duration="120.00" routeLength="879.60" waitingTime="40.00" waitingCount="1" stopTime="0.00" timeLoss="51.80" rerouteNo="0" devices="tripinfo_77" vType="DEFAULT_VEHTYPE" speedFactor="0.94" vaporized=""/>
    <tripinfo id="40" depart="190.00" departLane="right3D3_0" departPos="5.10" departSpeed="0.00" departDelay="0.00" arrival="468.00" arrivalLane="D0bottom3_0" arrivalPos="286.40" arrivalSpeed="14.31" duration="278.00" routeLength="1495.35" waitingTime="147.00" waitingCount="4" stopTime="0.00" timeLoss="175.62" rerouteNo="0" devices="tripinfo_40" vType="DEFAULT_VEHTYPE" speedFactor="1.06" vaporized=""/>
    <tripinfo id="55" depart="256.00" departLane="right2D2_0" departPos="5.10" departSpeed="0.00" departDelay="0.00" arrival="471.00" arrivalLane="A3top0_0" arrivalPos="286.40" arrivalSpeed="11.73" duration="215.00" routeLength="1780.11" waitingTime="48.00" waitingCount="3" stopTime="0.00" timeLoss="75.60" rerouteNo="0" devices="tripinfo_55" vType="DEFAULT_VEHTYPE" speedFactor="0.93" vaporized=""/>
    <tripinfo id="59" depart="274.00" departLane="bottom2C0_0" departPos="5.10" departSpeed="0.00" departDelay="0.00" arrival="471.00" arrivalLane="C3top2_0" arrivalPos="286.40" arrivalSpeed="12.30" duration="197.00" routeLength="1495.58" waitingTime="52.00" waitingCount="3" stopTime="0.00" timeLoss="81.04" rerouteNo="0" devices="tripinfo_59" vType="DEFAULT_VEHTYPE" speedFactor="0.93" vaporized=""/>
    <tripinfo id="34" depart="139.00" departLane="right1D1_0" departPos="5.10" departSpeed="0.00" departDelay="0.00" arrival="479.00" arrivalLane="A3top0_0" arrivalPos="286.40" arrivalSpeed="9.02" duration="340.00" routeLength="2080.28" waitingTime="102.00" waitingCount="3" stopTime="0.00" timeLoss="133.52" rerouteNo="0" devices="tripinfo_34" vType="DEFAULT_VEHTYPE" speedFactor="0.73" vaporized=""/>
    <tripinfo id="46" depart="223.00" departLane="left3A3_0" departPos="5.10" departSpeed="0.00" departDelay="0.00" arrival="481.00" arrivalLane="B0bottom1_0" arrivalPos="286.40" arrivalSpeed="12.01" duration="258.00" routeLength="1780.11" waitingTime="89.00" waitingCount="3" stopTime="0.00" timeLoss="117.48" rerouteNo="0" devices="tripinfo_46" vType="DEFAULT_VEHTYPE" speedFactor="0.92" vaporized=""/>
    <tripinfo id="89" depart="392.00" departLane="right1D1_0" departPos="5.10" departSpeed="0.00" departDelay="0.00" arrival="483.00" arrivalLane="D0right0_0" arrivalPos="286.40" arrivalSpeed="12.43" duration="91.00" routeLength="894.86" waitingTime="12.00" waitingCount="1" stopTime="0.00" timeLoss="24.15" rerouteNo="0" devices="tripinfo_89" vType="DEFAULT_VEHTYPE" speedFactor="0.99" vaporized=""/>
    <tripinfo id="99" depart="439.00" departLane="left0A0_0" departPos="5.10" departSpeed="0.00" departDelay="0.00" arrival="488.00" arrivalLane="A0bottom0_0" arrivalPos="286.40" arrivalSpeed="12.80" duration="49.00" routeLength="576.73" waitingTime="0.00" waitingCount="0" stopTime="0.00" timeLoss="6.13" rerouteNo="0" devices="tripinfo_99" vType="DEFAULT_VEHTYPE" speedFactor="0.99" vaporized=""/>
    <tripinfo id="98" depart="436.00" departLane="left3A3_0" departPos="5.10" departSpeed="0.00" departDelay="0.00" arrival="498.00" arrivalLane="B3top1_0" arrivalPos="286.40" arrivalSpeed="15.49" duration="62.00" routeLength="897.72" waitingTime="0.00" waitingCount="0" stopTime="0.00" timeLoss="5.48" rerouteNo="0" devices="tripinfo_98" vType="DEFAULT_VEHTYPE" speedFactor="1.15" vaporized=""/>
    <tripinfo id="65" depart="295.00" departLane="right3D3_0" departPos="5.10" departSpeed="0.00" departDelay="2.00" arrival="505.00" arrivalLane="D0bottom3_0" arrivalPos="286.40" arrivalSpeed="13.71" duration="210.00" routeLength="1495.35" waitingTime="83.00" waitingCount="1" stopTime="0.00" timeLoss="100.42" rerouteNo="0" devices="tripinfo_65" vType="DEFAULT_VEHTYPE" speedFactor="0.99" vaporized=""/>