<?xml version="1.0" encoding="UTF-8"?>

<!-- generated on 12/19/21 18:37:26 by Eclipse SUMO sumo Version 1.7.0
<configuration xmlns:xsi="http://www.w3.org/2001/XMLSchema-instance" xsi:noNamespaceSchemaLocation="http://sumo.dlr.de/xsd/sumoConfiguration.xsd">

    <input>
        <net-file value="C:\Users\longs\Desktop\RESCO-main\environments\grid4x4\grid4x4.net.xml"/>
        <route-files value="C:\Users\longs\Desktop\RESCO-main\environments\grid4x4\grid4x4_72.rou.xml"/>
    </input>

    <output>
        <tripinfo-output value="C:\Users\longs\Desktop\RESCO-main\logs\IDQN-tr1-grid4x4-0-drqlong-delaydiff_pressure09\tripinfo_72.xml"/>
        <tripinfo-output.write-unfinished value="true"/>
    </output>

    <processing>
        <time-to-teleport value="-1"/>
    </processing>

    <report>
        <no-warnings value="true"/>
        <no-step-log value="true"/>
    </report>

    <traci_server>
        <remote-port value="59556"/>
    </traci_server>

    <random_number>
        <random value="true"/>
    </random_number>

</configuration>
-->

<tripinfos xmlns:xsi="http://www.w3.org/2001/XMLSchema-instance" xsi:noNamespaceSchemaLocation="http://sumo.dlr.de/xsd/tripinfo_file.xsd">
    <tripinfo id="0" depart="3.00" departLane="bottom0A0_0" departPos="5.10" departSpeed="0.00" departDelay="0.00" arrival="94.00" arrivalLane="A1left1_0" arrivalPos="286.40" arrivalSpeed="13.57" duration="91.00" routeLength="897.72" waitingTime="12.00" waitingCount="1" stopTime="0.00" timeLoss="24.59" rerouteNo="0" devices="tripinfo_0" vType="DEFAULT_VEHTYPE" speedFactor="0.98" vaporized=""/>
    <tripinfo id="1" depart="3.00" departLane="right2D2_0" departPos="5.10" departSpeed="0.00" departDelay="0.00" arrival="118.00" arrivalLane="D0bottom3_0" arrivalPos="286.40" arrivalSpeed="13.47" duration="115.00" routeLength="1195.18" waitingTime="12.00" waitingCount="1" stopTime="0.00" timeLoss="29.89" rerouteNo="0" devices="tripinfo_1" vType="DEFAULT_VEHTYPE" speedFactor="1.02" vaporized=""/>
    <tripinfo id="5" depart="23.00" departLane="right0D0_0" departPos="5.10" departSpeed="0.00" departDelay="0.00" arrival="133.00" arrivalLane="B0bottom1_0" arrivalPos="286.40" arrivalSpeed="14.33" duration="110.00" routeLength="1197.89" waitingTime="5.00" waitingCount="2" stopTime="0.00" timeLoss="25.92" rerouteNo="0" devices="tripinfo_5" vType="DEFAULT_VEHTYPE" speedFactor="1.04" vaporized=""/>
    <tripinfo id="19" depart="72.00" departLane="left0A0_0" departPos="5.10" departSpeed="0.00" departDelay="0.00" arrival="141.00" arrivalLane="A1left1_0" arrivalPos="286.40" arrivalSpeed="13.73" duration="69.00" routeLength="894.86" waitingTime="0.00" waitingCount="0" stopTime="0.00" timeLoss="6.85" rerouteNo="0" devices="tripinfo_19" vType="DEFAULT_VEHTYPE" speedFactor="1.06" vaporized=""/>
    <tripinfo id="3" depart="7.00" departLane="bottom0A0_0" departPos="5.10" departSpeed="0.00" departDelay="0.00" arrival="150.00" arrivalLane="A3left3_0" arrivalPos="286.40" arrivalSpeed="13.25" duration="143.00" routeLength="1498.06" waitingTime="13.00" waitingCount="2" stopTime="0.00" timeLoss="34.13" rerouteNo="0" devices="tripinfo_3" vType="DEFAULT_VEHTYPE" speedFactor="1.00" vaporized=""/>
    <tripinfo id="6" depart="36.00" departLane="bottom2C0_0" departPos="5.10" departSpeed="0.00" departDelay="0.00" arrival="160.00" arrivalLane="D1right1_0" arrivalPos="286.40" arrivalSpeed="13.55" duration="124.00" routeLength="1179.77" waitingTime="14.00" waitingCount="3" stopTime="0.00" timeLoss="36.33" rerouteNo="0" devices="tripinfo_6" vType="DEFAULT_VEHTYPE" speedFactor="0.98" vaporized=""/>
    <tripinfo id="10" depart="45.00" departLane="left3A3_0" departPos="5.10" departSpeed="0.00" departDelay="0.00" arrival="160.00" arrivalLane="C3top2_1" arrivalPos="286.40" arrivalSpeed="13.67" duration="115.00" routeLength="1197.89" waitingTime="13.00" waitingCount="2" stopTime="0.00" timeLoss="33.60" rerouteNo="0" devices="tripinfo_10" vType="DEFAULT_VEHTYPE" speedFactor="1.07" vaporized=""/>
    <tripinfo id="17" depart="63.00" departLane="top1B3_0" departPos="5.10" departSpeed="0.00" departDelay="0.00" arrival="165.00" arrivalLane="C3top2_0" arrivalPos="286.40" arrivalSpeed="10.32" duration="102.00" routeLength="894.86" waitingTime="9.00" waitingCount="1" stopTime="0.00" timeLoss="18.98" rerouteNo="0" devices="tripinfo_17" vType="DEFAULT_VEHTYPE" speedFactor="0.79" vaporized=""/>
    <tripinfo id="2" depart="5.00" departLane="top0A3_0" departPos="5.10" departSpeed="0.00" departDelay="0.00" arrival="167.00" arrivalLane="D2right2_0" arrivalPos="286.40" arrivalSpeed="14.89" duration="162.00" routeLength="1795.52" waitingTime="25.00" waitingCount="2" stopTime="0.00" timeLoss="46.17" rerouteNo="0" devices="tripinfo_2" vType="DEFAULT_VEHTYPE" speedFactor="1.13" vaporized=""/>
    <tripinfo id="4" depart="17.00" departLane="right0D0_0" departPos="5.10" departSpeed="0.00" departDelay="0.00" arrival="169.00" arrivalLane="A0bottom0_0" arrivalPos="286.40" arrivalSpeed="14.23" duration="152.00" routeLength="1498.06" waitingTime="23.00" waitingCount="3" stopTime="0.00" timeLoss="47.15" rerouteNo="0" devices="tripinfo_4" vType="DEFAULT_VEHTYPE" speedFactor="1.04" vaporized=""/>
    <tripinfo id="12" depart="48.00" departLane="left0A0_0" departPos="5.10" departSpeed="0.00" departDelay="0.00" arrival="170.00" arrivalLane="A2left2_0" arrivalPos="286.40" arrivalSpeed="12.56" duration="122.00" routeLength="1197.66" waitingTime="14.00" waitingCount="2" stopTime="0.00" timeLoss="32.69" rerouteNo="0" devices="tripinfo_12" vType="DEFAULT_VEHTYPE" speedFactor="0.98" vaporized=""/>
    <tripinfo id="7" depart="37.00" departLane="bottom0A0_0" departPos="5.10" departSpeed="0.00" departDelay="0.00" arrival="180.00" arrivalLane="D0right0_0" arrivalPos="286.40" arrivalSpeed="12.76" duration="143.00" routeLength="1479.94" waitingTime="8.00" waitingCount="2" stopTime="0.00" timeLoss="30.42" rerouteNo="0" devices="tripinfo_7" vType="DEFAULT_VEHTYPE" speedFactor="0.96" vaporized=""/>
    <tripinfo id="22" depart="87.00" departLane="right0D0_0" departPos="5.10" departSpeed="0.00" departDelay="0.00" arrival="202.00" arrivalLane="D2right2_0" arrivalPos="286.40" arrivalSpeed="13.52" duration="115.00" routeLength="1161.43" waitingTime="11.00" waitingCount="2" stopTime="0.00" timeLoss="31.67" rerouteNo="0" devices="tripinfo_22" vType="DEFAULT_VEHTYPE" speedFactor="1.02" vaporized=""/>
    <tripinfo id="31" depart="123.00" departLane="bottom2C0_0" departPos="5.10" departSpeed="0.00" departDelay="0.00" arrival="209.00" arrivalLane="D0right0_0" arrivalPos="286.40" arrivalSpeed="12.87" duration="86.00" routeLength="879.60" waitingTime="10.00" waitingCount="1" stopTime="0.00" timeLoss="22.22" rerouteNo="0" devices="tripinfo_31" vType="DEFAULT_VEHTYPE" speedFactor="1.01" vaporized=""/>
    <tripinfo id="37" depart="146.00" departLane="right1D1_0" departPos="5.10" departSpeed="0.00" departDelay="0.00" arrival="219.00" arrivalLane="D2right2_0" arrivalPos="286.40" arrivalSpeed="14.40" duration="73.00" routeLength="858.56" waitingTime="1.00" waitingCount="1" stopTime="0.00" timeLoss="15.92" rerouteNo="0" devices="tripinfo_37" vType="DEFAULT_VEHTYPE" speedFactor="1.12" vaporized=""/>
    <tripinfo id="27" depart="111.00" departLane="bottom0A0_0" departPos="5.10" departSpeed="0.00" departDelay="0.00" arrival="224.00" arrivalLane="C0bottom2_0" arrivalPos="286.40" arrivalSpeed="13.10" duration="113.00" routeLength="1161.43" waitingTime="6.00" waitingCount="2" stopTime="0.00" timeLoss="25.26" rerouteNo="0" devices="tripinfo_27" vType="DEFAULT_VEHTYPE" speedFactor="0.97" vaporized=""/>
    <tripinfo id="30" depart="122.00" departLane="top2C3_0" departPos="5.10" departSpeed="0.00" departDelay="0.00" arrival="225.00" arrivalLane="A3top0_0" arrivalPos="286.40" arrivalSpeed="12.42" duration="103.00" routeLength="1161.43" waitingTime="1.00" waitingCount="1" stopTime="0.00" timeLoss="14.16" rerouteNo="0" devices="tripinfo_30" vType="DEFAULT_VEHTYPE" speedFactor="0.96" vaporized=""/>
    <tripinfo id="18" depart="72.00" departLane="top1B3_0" departPos="5.10" departSpeed="0.00" departDelay="0.00" arrival="226.00" arrivalLane="C0bottom2_0" arrivalPos="286.40" arrivalSpeed="16.98" duration="154.00" routeLength="1782.59" waitingTime="18.00" waitingCount="4" stopTime="0.00" timeLoss="48.89" rerouteNo="0" devices="tripinfo_18" vType="DEFAULT_VEHTYPE" speedFactor="1.24" vaporized=""/>
    <tripinfo id="13" depart="50.00" departLane="bottom1B0_0" departPos="5.10" departSpeed="0.00" departDelay="0.00" arrival="230.00" arrivalLane="D2right2_0" arrivalPos="286.40" arrivalSpeed="12.38" duration="180.00" routeLength="1780.11" waitingTime="12.00" waitingCount="3" stopTime="0.00" timeLoss="43.40" rerouteNo="0" devices="tripinfo_13" vType="DEFAULT_VEHTYPE" speedFactor="0.94" vaporized=""/>
    <tripinfo id="14" depart="56.00" departLane="left3A3_0" departPos="5.10" departSpeed="0.00" departDelay="0.00" arrival="237.00" arrivalLane="A0bottom0_0" arrivalPos="286.40" arrivalSpeed="14.03" duration="181.00" routeLength="1479.94" waitingTime="51.00" waitingCount="3" stopTime="0.00" timeLoss="83.32" rerouteNo="0" devices="tripinfo_14" vType="DEFAULT_VEHTYPE" speedFactor="1.10" vaporized=""/>
    <tripinfo id="9" depart="45.00" departLane="top1B3_0" departPos="5.10" departSpeed="0.00" departDelay="0.00" arrival="246.00" arrivalLane="A0bottom0_0" arrivalPos="286.40" arrivalSpeed="11.18" duration="201.00" routeLength="1782.72" waitingTime="17.00" waitingCount="2" stopTime="0.00" timeLoss="43.59" rerouteNo="0" devices="tripinfo_9" vType="DEFAULT_VEHTYPE" speedFactor="0.83" vaporized=""/>
    <tripinfo id="16" depart="61.00" departLane="right0D0_0" departPos="5.10" departSpeed="0.00" departDelay="0.00" arrival="249.00" arrivalLane="D0right0_0" arrivalPos="286.40" arrivalSpeed="13.16" duration="188.00" routeLength="1748.75" waitingTime="21.00" waitingCount="5" stopTime="0.00" timeLoss="58.72" rerouteNo="0" devices="tripinfo_16" vType="DEFAULT_VEHTYPE" speedFactor="0.99" vaporized=""/>
    <tripinfo id="41" depart="166.00" departLane="bottom0A0_0" departPos="5.10" departSpeed="0.00" departDelay="0.00" arrival="250.00" arrivalLane="A0left0_0" arrivalPos="286.40" arrivalSpeed="12.42" duration="84.00" routeLength="597.55" waitingTime="29.00" waitingCount="1" stopTime="0.00" timeLoss="39.01" rerouteNo="0" devices="tripinfo_41" vType="DEFAULT_VEHTYPE" speedFactor="0.97" vaporized=""/>
    <tripinfo id="23" depart="89.00" departLane="right3D3_0" departPos="5.10" departSpeed="0.00" departDelay="0.00" arrival="254.00" arrivalLane="C0bottom2_0" arrivalPos="286.40" arrivalSpeed="13.35" duration="165.00" routeLength="1795.52" waitingTime="17.00" waitingCount="2" stopTime="0.00" timeLoss="36.09" rerouteNo="0" devices="tripinfo_23" vType="DEFAULT_VEHTYPE" speedFactor="1.01" vaporized=""/>
    <tripinfo id="26" depart="108.00" departLane="top3D3_0" departPos="5.10" departSpeed="0.00" departDelay="0.00" arrival="254.00" arrivalLane="D0right0_0" arrivalPos="286.40" arrivalSpeed="13.81" duration="146.00" routeLength="1498.06" waitingTime="16.00" waitingCount="2" stopTime="0.00" timeLoss="37.87" rerouteNo="0" devices="tripinfo_26" vType="DEFAULT_VEHTYPE" speedFactor="1.00" vaporized=""/>
    <tripinfo id="33" depart="125.00" departLane="top2C3_0" departPos="5.10" departSpeed="0.00" departDelay="0.00" arrival="255.00" arrivalLane="A2left2_0" arrivalPos="286.40" arrivalSpeed="15.35" duration="130.00" routeLength="1479.94" waitingTime="17.00" waitingCount="2" stopTime="0.00" timeLoss="39.42" rerouteNo="0" devices="tripinfo_33" vType="DEFAULT_VEHTYPE" speedFactor="1.19" vaporized=""/>
    <tripinfo id="28" depart="112.00" departLane="bottom2C0_0" departPos="5.10" departSpeed="0.00" departDelay="0.00" arrival="264.00" arrivalLane="D2right2_0" arrivalPos="286.40" arrivalSpeed="10.40" duration="152.00" routeLength="1479.94" waitingTime="0.00" waitingCount="0" stopTime="0.00" timeLoss="14.87" rerouteNo="0" devices="tripinfo_28" vType="DEFAULT_VEHTYPE" speedFactor="0.78" vaporized=""/>
    <tripinfo id="29" depart="118.00" departLane="right3D3_0" departPos="5.10" departSpeed="0.00" departDelay="0.00" arrival="264.00" arrivalLane="D3right3_0" arrivalPos="286.40" arrivalSpeed="14.18" duration="146.00" routeLength="1745.91" waitingTime="9.00" waitingCount="1" stopTime="0.00" timeLoss="28.42" rerouteNo="0" devices="tripinfo_29" vType="DEFAULT_VEHTYPE" speedFactor="1.09" vaporized=""/>
    <tripinfo id="25" depart="103.00" departLane="top0A3_0" departPos="5.10" departSpeed="0.00" departDelay="0.00" arrival="265.00" arrivalLane="A0left0_0" arrivalPos="286.40" arrivalSpeed="14.50" duration="162.00" routeLength="1477.24" waitingTime="29.00" waitingCount="4" stopTime="0.00" timeLoss="61.02" rerouteNo="0" devices="tripinfo_25" vType="DEFAULT_VEHTYPE" speedFactor="1.06" vaporized=""/>
    <tripinfo id="45" depart="183.00" departLane="left1A1_0" departPos="5.10" departSpeed="0.00" departDelay="0.00" arrival="278.00" arrivalLane="A2left2_0" arrivalPos="286.40" arrivalSpeed="14.14" duration="95.00" routeLength="894.86" waitingTime="18.00" waitingCount="2" stopTime="0.00" timeLoss="34.14" rerouteNo="0" devices="tripinfo_45" vType="DEFAULT_VEHTYPE" speedFactor="1.09" vaporized=""/>
    <tripinfo id="38" depart="147.00" departLane="bottom0A0_0" departPos="5.10" departSpeed="0.00" departDelay="0.00" arrival="293.00" arrivalLane="D0bottom3_0" arrivalPos="286.40" arrivalSpeed="12.56" duration="146.00" routeLength="1461.60" waitingTime="10.00" waitingCount="3" stopTime="0.00" timeLoss="34.99" rerouteNo="0" devices="tripinfo_38" vType="DEFAULT_VEHTYPE" speedFactor="0.96" vaporized=""/>
    <tripinfo id="43" depart="173.00" departLane="top2C3_0" departPos="5.10" departSpeed="0.00" departDelay="0.00" arrival="299.00" arrivalLane="D2right2_0" arrivalPos="286.40" arrivalSpeed="12.78" duration="126.00" routeLength="1195.18" waitingTime="20.00" waitingCount="2" stopTime="0.00" timeLoss="37.67" rerouteNo="0" devices="tripinfo_43" vType="DEFAULT_VEHTYPE" speedFactor="0.98" vaporized=""/>
    <tripinfo id="44" depart="177.00" departLane="bottom1B0_0" departPos="5.10" departSpeed="0.00" departDelay="0.00" arrival="299.00" arrivalLane="D0right0_0" arrivalPos="286.40" arrivalSpeed="13.40" duration="122.00" routeLength="1179.77" waitingTime="15.00" waitingCount="3" stopTime="0.00" timeLoss="37.57" rerouteNo="0" devices="tripinfo_44" vType="DEFAULT_VEHTYPE" speedFactor="1.02" vaporized=""/>
    <tripinfo id="46" depart="189.00" departLane="left0A0_0" departPos="5.10" departSpeed="0.00" departDelay="0.00" arrival="300.00" arrivalLane="A1left1_0" arrivalPos="286.40" arrivalSpeed="13.41" duration="111.00" routeLength="894.86" waitingTime="26.00" waitingCount="2" stopTime="0.00" timeLoss="44.15" rerouteNo="0" devices="tripinfo_46" vType="DEFAULT_VEHTYPE" speedFactor="0.99" vaporized=""/>
    <tripinfo id="11" depart="48.00" departLane="left3A3_0" departPos="5.10" departSpeed="0.00" departDelay="2.00" arrival="302.00" arrivalLane="D1right1_0" arrivalPos="286.40" arrivalSpeed="12.32" duration="254.00" routeLength="2082.76" waitingTime="50.00" waitingCount="4" stopTime="0.00" timeLoss="89.86" rerouteNo="0" devices="tripinfo_11" vType="DEFAULT_VEHTYPE" speedFactor="0.92" vaporized=""/>
    <tripinfo id="20" depart="80.00" departLane="left3A3_0" departPos="5.10" departSpeed="0.00" departDelay="0.00" arrival="303.00" arrivalLane="D1right1_1" arrivalPos="286.40" arrivalSpeed="12.80" duration="223.00" routeLength="2082.76" waitingTime="44.00" waitingCount="3" stopTime="0.00" timeLoss="71.27" rerouteNo="0" devices="tripinfo_20" vType="DEFAULT_VEHTYPE" speedFactor="1.00" vaporized=""/>
    <tripinfo id="15" depart="60.00" departLane="right2D2_0" departPos="5.10" departSpeed="0.00" departDelay="0.00" arrival="308.00" arrivalLane="A0bottom0_0" arrivalPos="286.40" arrivalSpeed="13.58" duration="248.00" routeLength="2095.69" waitingTime="64.00" waitingCount="5" stopTime="0.00" timeLoss="105.59" rerouteNo="0" devices="tripinfo_15" vType="DEFAULT_VEHTYPE" speedFactor="1.07" vaporized=""/>
    <tripinfo id="8" depart="43.00" departLane="bottom3D0_0" departPos="5.10" departSpeed="0.00" departDelay="0.00" arrival="313.00" arrivalLane="A2left2_0" arrivalPos="286.40" arrivalSpeed="10.43" duration="270.00" routeLength="2095.69" waitingTime="53.00" waitingCount="5" stopTime="0.00" timeLoss="90.40" rerouteNo="0" devices="tripinfo_8" vType="DEFAULT_VEHTYPE" speedFactor="0.84" vaporized=""/>
    <tripinfo id="50" depart="199.00" departLane="top0A3_0" departPos="5.10" departSpeed="0.00" departDelay="0.00" arrival="317.00" arrivalLane="A1left1_0" arrivalPos="286.40" arrivalSpeed="11.87" duration="118.00" routeLength="1177.07" waitingTime="4.00" waitingCount="1" stopTime="0.00" timeLoss="24.04" rerouteNo="0" devices="tripinfo_50" vType="DEFAULT_VEHTYPE" speedFactor="0.91" vaporized=""/>
    <tripinfo id="34" depart="128.00" departLane="right0D0_0" departPos="5.10" departSpeed="0.00" departDelay="0.00" arrival="320.00" arrivalLane="B3top1_0" arrivalPos="286.40" arrivalSpeed="13.16" duration="192.00" routeLength="2080.28" waitingTime="13.00" waitingCount="2" stopTime="0.00" timeLoss="35.50" rerouteNo="0" devices="tripinfo_34" vType="DEFAULT_VEHTYPE" speedFactor="0.97" vaporized=""/>
    <tripinfo id="21" depart="81.00" departLane="top3D3_0" departPos="5.10" departSpeed="0.00" departDelay="0.00" arrival="330.00" arrivalLane="A0left0_0" arrivalPos="286.40" arrivalSpeed="13.35" duration="249.00" routeLength="2380.45" waitingTime="38.00" waitingCount="4" stopTime="0.00" timeLoss="72.97" rerouteNo="0" devices="tripinfo_21" vType="DEFAULT_VEHTYPE" speedFactor="0.98" vaporized=""/>
    <tripinfo id="24" depart="94.00" departLane="top3D3_0" departPos="5.10" departSpeed="0.00" departDelay="0.00" arrival="330.00" arrivalLane="A0bottom0_0" arrivalPos="286.40" arrivalSpeed="12.91" duration="236.00" routeLength="2382.93" waitingTime="26.00" waitingCount="2" stopTime="0.00" timeLoss="50.33" rerouteNo="0" devices="tripinfo_24" vType="DEFAULT_VEHTYPE" speedFactor="0.93" vaporized=""/>
    <tripinfo id="56" depart="230.00" departLane="right2D2_0" departPos="5.10" departSpeed="0.00" departDelay="0.00" arrival="331.00" arrivalLane="D1right1_0" arrivalPos="286.40" arrivalSpeed="13.00" duration="101.00" routeLength="894.86" waitingTime="15.00" waitingCount="2" stopTime="0.00" timeLoss="31.42" rerouteNo="0" devices="tripinfo_56" vType="DEFAULT_VEHTYPE" speedFactor="0.95" vaporized=""/>
    <tripinfo id="47" depart="191.00" departLane="left3A3_0" departPos="5.10" departSpeed="0.00" departDelay="0.00" arrival="338.00" arrivalLane="A0left0_0" arrivalPos="286.40" arrivalSpeed="11.84" duration="147.00" routeLength="1461.60" waitingTime="11.00" waitingCount="3" stopTime="0.00" timeLoss="33.65" rerouteNo="0" devices="tripinfo_47" vType="DEFAULT_VEHTYPE" speedFactor="0.94" vaporized=""/>
    <tripinfo id="55" depart="221.00" departLane="top1B3_0" departPos="5.10" departSpeed="0.00" departDelay="0.00" arrival="339.00" arrivalLane="A2left2_0" arrivalPos="286.40" arrivalSpeed="13.36" duration="118.00" routeLength="1179.77" waitingTime="9.00" waitingCount="3" stopTime="0.00" timeLoss="31.48" rerouteNo="0" devices="tripinfo_55" vType="DEFAULT_VEHTYPE" speedFactor="0.99" vaporized=""/>
    <tripinfo id="48" depart="192.00" departLane="bottom2C0_0" departPos="5.10" departSpeed="0.00" departDelay="0.00" arrival="341.00" arrivalLane="D2right2_0" arrivalPos="286.40" arrivalSpeed="12.29" duration="149.00" routeLength="1479.94" waitingTime="6.00" waitingCount="2" stopTime="0.00" timeLoss="29.72" rerouteNo="0" devices="tripinfo_48" vType="DEFAULT_VEHTYPE" speedFactor="0.90" vaporized=""/>
    <tripinfo id="68" depart="289.00" departLane="right3D3_0" departPos="5.10" departSpeed="0.00" departDelay="0.00" arrival="341.00" arrivalLane="D3top3_0" arrivalPos="286.40" arrivalSpeed="13.28" duration="52.00" routeLength="576.73" waitingTime="1.00" waitingCount="1" stopTime="0.00" timeLoss="10.87" rerouteNo="0" devices="tripinfo_68" vType="DEFAULT_VEHTYPE" speedFactor="1.03" vaporized=""/>
    <tripinfo id="35" depart="140.00" departLane="top0A3_0" departPos="5.10" departSpeed="0.00" departDelay="0.00" arrival="348.00" arrivalLane="D0bottom3_0" arrivalPos="286.40" arrivalSpeed="14.74" duration="208.00" routeLength="2380.22" waitingTime="18.00" waitingCount="3" stopTime="0.00" timeLoss="48.37" rerouteNo="0" devices="tripinfo_35" vType="DEFAULT_VEHTYPE" speedFactor="1.08" vaporized=""/>
    <tripinfo id="58" depart="253.00" departLane="top0A3_0" departPos="5.10" departSpeed="0.00" departDelay="0.00" arrival="349.00" arrivalLane="B3top1_0" arrivalPos="286.40" arrivalSpeed="13.62" duration="96.00" routeLength="894.86" waitingTime="17.00" waitingCount="2" stopTime="0.00" timeLoss="32.11" rerouteNo="0" devices="tripinfo_58" vType="DEFAULT_VEHTYPE" speedFactor="1.03" vaporized=""/>
    <tripinfo id="32" depart="123.00" departLane="bottom0A0_0" departPos="5.10" departSpeed="0.00" departDelay="0.00" arrival="350.00" arrivalLane="C3top2_0" arrivalPos="286.40" arrivalSpeed="12.65" duration="227.00" routeLength="2082.76" waitingTime="36.00" waitingCount="4" stopTime="0.00" timeLoss="68.44" rerouteNo="0" devices="tripinfo_32" vType="DEFAULT_VEHTYPE" speedFactor="0.95" vaporized=""/>
    <tripinfo id="39" depart="148.00" departLane="top1B3_0" departPos="5.10" departSpeed="0.00" departDelay="0.00" arrival="351.00" arrivalLane="C0bottom2_0" arrivalPos="286.40" arrivalSpeed="12.65" duration="203.00" routeLength="1782.59" waitingTime="39.00" waitingCount="3" stopTime="0.00" timeLoss="65.49" rerouteNo="0" devices="tripinfo_39" vType="DEFAULT_VEHTYPE" speedFactor="0.94" vaporized=""/>
    <tripinfo id="53" depart="205.00" departLane="bottom1B0_0" departPos="5.10" departSpeed="0.00" departDelay="0.00" arrival="355.00" arrivalLane="B0bottom1_0" arrivalPos="286.40" arrivalSpeed="14.92" duration="150.00" routeLength="1748.75" waitingTime="5.00" waitingCount="3" stopTime="0.00" timeLoss="37.93" rerouteNo="0" devices="tripinfo_53" vType="DEFAULT_VEHTYPE" speedFactor="1.15" vaporized=""/>
    <tripinfo id="49" depart="197.00" departLane="bottom1B0_0" departPos="5.10" departSpeed="0.00" departDelay="0.00" arrival="358.00" arrivalLane="D1right1_0" arrivalPos="286.40" arrivalSpeed="14.65" duration="161.00" routeLength="1479.94" waitingTime="34.00" waitingCount="3" stopTime="0.00" timeLoss="59.58" rerouteNo="0" devices="tripinfo_49" vType="DEFAULT_VEHTYPE" speedFactor="1.07" vaporized=""/>
    <tripinfo id="42" depart="169.00" departLane="bottom3D0_0" departPos="5.10" departSpeed="0.00" departDelay="0.00" arrival="377.00" arrivalLane="A2left2_0" arrivalPos="286.40" arrivalSpeed="15.46" duration="208.00" routeLength="2095.69" waitingTime="31.00" waitingCount="4" stopTime="0.00" timeLoss="73.14" rerouteNo="0" devices="tripinfo_42" vType="DEFAULT_VEHTYPE" speedFactor="1.13" vaporized=""/>
    <tripinfo id="70" depart="305.00" departLane="left2A2_0" departPos="5.10" departSpeed="0.00" departDelay="0.00" arrival="378.00" arrivalLane="A1left1_0" arrivalPos="286.40" arrivalSpeed="13.59" duration="73.00" routeLength="858.56" waitingTime="1.00" waitingCount="1" stopTime="0.00" timeLoss="13.93" rerouteNo="0" devices="tripinfo_70" vType="DEFAULT_VEHTYPE" speedFactor="1.07" vaporized=""/>
    <tripinfo id="71" depart="305.00" departLane="left1A1_0" departPos="5.10" departSpeed="0.00" departDelay="0.00" arrival="380.00" arrivalLane="A0bottom0_1" arrivalPos="286.40" arrivalSpeed="14.37" duration="75.00" routeLength="879.60" waitingTime="1.00" waitingCount="1" stopTime="0.00" timeLoss="15.21" rerouteNo="0" devices="tripinfo_71" vType="DEFAULT_VEHTYPE" speedFactor="1.08" vaporized=""/>
    <tripinfo id="54" depart="220.00" departLane="top0A3_0" departPos="5.10" departSpeed="0.00" departDelay="0.00" arrival="381.00" arrivalLane="A0bottom0_0" arrivalPos="286.40" arrivalSpeed="12.35" duration="161.00" routeLength="1495.58" waitingTime="22.00" waitingCount="3" stopTime="0.00" timeLoss="44.95" rerouteNo="0" devices="tripinfo_54" vType="DEFAULT_VEHTYPE" speedFactor="0.93" vaporized=""/>
    <tripinfo id="64" depart="274.00" departLane="top3D3_0" departPos="5.10" departSpeed="0.00" departDelay="0.00" arrival="381.00" arrivalLane="D2right2_0" arrivalPos="286.40" arrivalSpeed="11.99" duration="107.00" routeLength="897.72" waitingTime="21.00" waitingCount="2" stopTime="0.00" timeLoss="37.93" rerouteNo="0" devices="tripinfo_64" vType="DEFAULT_VEHTYPE" speedFactor="0.95" vaporized=""/>
    <tripinfo id="36" depart="145.00" departLane="top3D3_0" departPos="5.10" departSpeed="0.00" departDelay="0.00" arrival="382.00" arrivalLane="B0bottom1_0" arrivalPos="286.40" arrivalSpeed="12.92" duration="237.00" routeLength="2082.76" waitingTime="47.00" waitingCount="5" stopTime="0.00" timeLoss="87.91" rerouteNo="0" devices="tripinfo_36" vType="DEFAULT_VEHTYPE" speedFactor="1.01" vaporized=""/>
    <tripinfo id="52" depart="202.00" departLane="bottom1B0_0" departPos="5.10" departSpeed="0.00" departDelay="0.00" arrival="384.00" arrivalLane="A2left2_0" arrivalPos="286.40" arrivalSpeed="11.97" duration="182.00" routeLength="1495.35" waitingTime="30.00" waitingCount="3" stopTime="0.00" timeLoss="61.52" rerouteNo="0" devices="tripinfo_52" vType="DEFAULT_VEHTYPE" speedFactor="0.90" vaporized=""/>
    <tripinfo id="75" depart="313.00" departLane="left2A2_0" departPos="5.10" departSpeed="0.00" departDelay="0.00" arrival="401.00" arrivalLane="A3left3_1" arrivalPos="286.40" arrivalSpeed="13.40" duration="88.00" routeLength="894.86" waitingTime="8.00" waitingCount="1" stopTime="0.00" timeLoss="23.35" rerouteNo="0" devices="tripinfo_75" vType="DEFAULT_VEHTYPE" speedFactor="1.02" vaporized=""/>
    <tripinfo id="76" depart="317.00" departLane="top1B3_0" departPos="5.10" departSpeed="0.00" departDelay="0.00" arrival="402.00" arrivalLane="A3top0_0" arrivalPos="286.40" arrivalSpeed="12.98" duration="85.00" routeLength="858.56" waitingTime="2.00" waitingCount="2" stopTime="0.00" timeLoss="17.91" rerouteNo="0" devices="tripinfo_76" vType="DEFAULT_VEHTYPE" speedFactor="0.94" vaporized=""/>
    <tripinfo id="66" depart="282.00" departLane="left2A2_0" departPos="5.10" departSpeed="0.00" departDelay="0.00" arrival="404.00" arrivalLane="A3left3_0" arrivalPos="286.40" arrivalSpeed="10.24" duration="122.00" routeLength="894.86" waitingTime="27.00" waitingCount="2" stopTime="0.00" timeLoss="42.60" rerouteNo="0" devices="tripinfo_66" vType="DEFAULT_VEHTYPE" speedFactor="0.82" vaporized=""/>
    <tripinfo id="73" depart="308.00" departLane="left1A1_0" departPos="5.10" departSpeed="0.00" departDelay="0.00" arrival="409.00" arrivalLane="A2left2_0" arrivalPos="286.40" arrivalSpeed="13.39" duration="101.00" routeLength="894.86" waitingTime="20.00" waitingCount="2" stopTime="0.00" timeLoss="37.22" rerouteNo="0" devices="tripinfo_73" vType="DEFAULT_VEHTYPE" speedFactor="1.04" vaporized=""/>
    <tripinfo id="40" depart="161.00" departLane="left0A0_0" departPos="5.10" departSpeed="0.00" departDelay="0.00" arrival="413.00" arrivalLane="D3top3_0" arrivalPos="286.40" arrivalSpeed="10.62" duration="252.00" routeLength="2395.86" waitingTime="16.00" waitingCount="3" stopTime="0.00" timeLoss="45.47" rerouteNo="0" devices="tripinfo_40" vType="DEFAULT_VEHTYPE" speedFactor="0.84" vaporized=""/>
    <tripinfo id="51" depart="202.00" departLane="right2D2_0" departPos="5.10" departSpeed="0.00" departDelay="0.00" arrival="415.00" arrivalLane="A0bottom0_0" arrivalPos="286.40" arrivalSpeed="12.75" duration="213.00" routeLength="2095.69" waitingTime="23.00" waitingCount="3" stopTime="0.00" timeLoss="51.67" rerouteNo="0" devices="tripinfo_51" vType="DEFAULT_VEHTYPE" speedFactor="0.94" vaporized=""/>
    <tripinfo id="69" depart="294.00" departLane="right1D1_0" departPos="5.10" departSpeed="0.00" departDelay="0.00" arrival="417.00" arrivalLane="D3top3_0" arrivalPos="286.40" arrivalSpeed="11.64" duration="123.00" routeLength="1179.77" waitingTime="8.00" waitingCount="2" stopTime="0.00" timeLoss="27.58" rerouteNo="0" devices="tripinfo_69" vType="DEFAULT_VEHTYPE" speedFactor="0.90" vaporized=""/>
    <tripinfo id="67" depart="288.00" departLane="top1B3_0" departPos="5.10" departSpeed="0.00" departDelay="0.00" arrival="418.00" arrivalLane="A1left1_0" arrivalPos="286.40" arrivalSpeed="13.14" duration="130.00" routeLength="1479.94" waitingTime="4.00" waitingCount="1" stopTime="0.00" timeLoss="25.89" rerouteNo="0" devices="tripinfo_67" vType="DEFAULT_VEHTYPE" speedFactor="1.04" vaporized=""/>
    <tripinfo id="65" depart="276.00" departLane="right0D0_0" departPos="5.10" departSpeed="0.00" departDelay="0.00" arrival="424.00" arrivalLane="A0left0_0" arrivalPos="286.40" arrivalSpeed="12.47" duration="148.00" routeLength="1495.58" waitingTime="13.00" waitingCount="2" stopTime="0.00" timeLoss="35.74" rerouteNo="0" devices="tripinfo_65" vType="DEFAULT_VEHTYPE" speedFactor="0.96" vaporized=""/>
    <tripinfo id="77" depart="324.00" departLane="top1B3_0" departPos="5.10" departSpeed="0.00" departDelay="0.00" arrival="432.00" arrivalLane="A2left2_0" arrivalPos="286.40" arrivalSpeed="14.13" duration="108.00" routeLength="1179.77" waitingTime="12.00" waitingCount="1" stopTime="0.00" timeLoss="25.67" rerouteNo="0" devices="tripinfo_77" vType="DEFAULT_VEHTYPE" speedFactor="1.04" vaporized=""/>
    <tripinfo id="78" depart="331.00" departLane="bottom0A0_0" departPos="5.10" departSpeed="0.00" departDelay="0.00" arrival="443.00" arrivalLane="A2left2_0" arrivalPos="286.40" arrivalSpeed="11.83" duration="112.00" routeLength="1197.89" waitingTime="0.00" waitingCount="0" stopTime="0.00" timeLoss="12.41" rerouteNo="0" devices="tripinfo_78" vType="DEFAULT_VEHTYPE" speedFactor="0.88" vaporized=""/>