<?xml version="1.0" encoding="UTF-8"?>

<!-- generated on 12/19/21 18:18:56 by Eclipse SUMO sumo Version 1.7.0
<configuration xmlns:xsi="http://www.w3.org/2001/XMLSchema-instance" xsi:noNamespaceSchemaLocation="http://sumo.dlr.de/xsd/sumoConfiguration.xsd">

    <input>
        <net-file value="C:\Users\longs\Desktop\RESCO-main\environments\grid4x4\grid4x4.net.xml"/>
        <route-files value="C:\Users\longs\Desktop\RESCO-main\environments\grid4x4\grid4x4_58.rou.xml"/>
    </input>

    <output>
        <tripinfo-output value="C:\Users\longs\Desktop\RESCO-main\logs\IDQN-tr1-grid4x4-0-drqlong-delaydiff_pressure09\tripinfo_58.xml"/>
        <tripinfo-output.write-unfinished value="true"/>
    </output>

    <processing>
        <time-to-teleport value="-1"/>
    </processing>

    <report>
        <no-warnings value="true"/>
        <no-step-log value="true"/>
    </report>

    <traci_server>
        <remote-port value="58883"/>
    </traci_server>

    <random_number>
        <random value="true"/>
    </random_number>

</configuration>
-->

<tripinfos xmlns:xsi="http://www.w3.org/2001/XMLSchema-instance" xsi:noNamespaceSchemaLocation="http://sumo.dlr.de/xsd/tripinfo_file.xsd">
    <tripinfo id="0" depart="7.00" departLane="bottom1B0_0" departPos="5.10" departSpeed="0.00" departDelay="0.00" arrival="117.00" arrivalLane="A0bottom0_0" arrivalPos="286.40" arrivalSpeed="9.87" duration="110.00" routeLength="894.86" waitingTime="10.00" waitingCount="1" stopTime="0.00" timeLoss="22.23" rerouteNo="0" devices="tripinfo_0" vType="DEFAULT_VEHTYPE" speedFactor="0.75" vaporized=""/>
    <tripinfo id="1" depart="22.00" departLane="left2A2_0" departPos="5.10" departSpeed="0.00" departDelay="0.00" arrival="127.00" arrivalLane="A3top0_0" arrivalPos="286.40" arrivalSpeed="14.54" duration="105.00" routeLength="895.01" waitingTime="27.00" waitingCount="2" stopTime="0.00" timeLoss="46.72" rerouteNo="0" devices="tripinfo_1" vType="DEFAULT_VEHTYPE" speedFactor="1.13" vaporized=""/>
    <tripinfo id="3" depart="37.00" departLane="right1D1_0" departPos="5.10" departSpeed="0.00" departDelay="0.00" arrival="135.00" arrivalLane="D2right2_0" arrivalPos="286.40" arrivalSpeed="11.12" duration="98.00" routeLength="858.56" waitingTime="2.00" waitingCount="2" stopTime="0.00" timeLoss="19.51" rerouteNo="0" devices="tripinfo_3" vType="DEFAULT_VEHTYPE" speedFactor="0.80" vaporized=""/>
    <tripinfo id="5" depart="52.00" departLane="bottom3D0_0" departPos="5.10" departSpeed="0.00" departDelay="0.00" arrival="141.00" arrivalLane="C0bottom2_0" arrivalPos="286.40" arrivalSpeed="12.38" duration="89.00" routeLength="894.86" waitingTime="2.00" waitingCount="2" stopTime="0.00" timeLoss="19.89" rerouteNo="0" devices="tripinfo_5" vType="DEFAULT_VEHTYPE" speedFactor="0.96" vaporized=""/>
    <tripinfo id="4" depart="51.00" departLane="left1A1_0" departPos="5.10" departSpeed="0.00" departDelay="0.00" arrival="170.00" arrivalLane="B0bottom1_0" arrivalPos="286.40" arrivalSpeed="12.13" duration="119.00" routeLength="1179.77" waitingTime="5.00" waitingCount="2" stopTime="0.00" timeLoss="29.04" rerouteNo="0" devices="tripinfo_4" vType="DEFAULT_VEHTYPE" speedFactor="0.95" vaporized=""/>
    <tripinfo id="15" depart="98.00" departLane="bottom1B0_0" departPos="5.10" departSpeed="0.00" departDelay="0.00" arrival="188.00" arrivalLane="A0left0_0" arrivalPos="286.40" arrivalSpeed="14.39" duration="90.00" routeLength="895.01" waitingTime="11.00" waitingCount="2" stopTime="0.00" timeLoss="28.09" rerouteNo="0" devices="tripinfo_15" vType="DEFAULT_VEHTYPE" speedFactor="1.05" vaporized=""/>
    <tripinfo id="2" depart="32.00" departLane="bottom2C0_0" departPos="5.10" departSpeed="0.00" departDelay="0.00" arrival="208.00" arrivalLane="A2left2_0" arrivalPos="286.40" arrivalSpeed="13.66" duration="176.00" routeLength="1795.52" waitingTime="24.00" waitingCount="3" stopTime="0.00" timeLoss="53.45" rerouteNo="0" devices="tripinfo_2" vType="DEFAULT_VEHTYPE" speedFactor="1.06" vaporized=""/>
    <tripinfo id="31" depart="144.00" departLane="left3A3_0" departPos="5.10" departSpeed="0.00" departDelay="0.00" arrival="220.00" arrivalLane="A3top0_0" arrivalPos="286.40" arrivalSpeed="12.84" duration="76.00" routeLength="597.55" waitingTime="20.00" waitingCount="1" stopTime="0.00" timeLoss="30.78" rerouteNo="0" devices="tripinfo_31" vType="DEFAULT_VEHTYPE" speedFactor="0.97" vaporized=""/>
    <tripinfo id="10" depart="71.00" departLane="left0A0_0" departPos="5.10" departSpeed="0.00" departDelay="0.00" arrival="224.00" arrivalLane="D0bottom3_0" arrivalPos="286.40" arrivalSpeed="13.94" duration="153.00" routeLength="1477.24" waitingTime="26.00" waitingCount="2" stopTime="0.00" timeLoss="48.19" rerouteNo="0" devices="tripinfo_10" vType="DEFAULT_VEHTYPE" speedFactor="1.02" vaporized=""/>
    <tripinfo id="25" depart="125.00" departLane="bottom1B0_0" departPos="5.10" departSpeed="0.00" departDelay="0.00" arrival="231.00" arrivalLane="D0bottom3_0" arrivalPos="286.40" arrivalSpeed="14.06" duration="106.00" routeLength="1161.43" waitingTime="7.00" waitingCount="2" stopTime="0.00" timeLoss="24.55" rerouteNo="0" devices="tripinfo_25" vType="DEFAULT_VEHTYPE" speedFactor="1.04" vaporized=""/>
    <tripinfo id="9" depart="63.00" departLane="left1A1_0" departPos="5.10" departSpeed="0.00" departDelay="0.00" arrival="240.00" arrivalLane="C3top2_1" arrivalPos="286.40" arrivalSpeed="15.74" duration="177.00" routeLength="1795.52" waitingTime="33.00" waitingCount="3" stopTime="0.00" timeLoss="66.80" rerouteNo="0" devices="tripinfo_9" vType="DEFAULT_VEHTYPE" speedFactor="1.18" vaporized=""/>
    <tripinfo id="8" depart="58.00" departLane="top1B3_0" departPos="5.10" departSpeed="0.00" departDelay="0.00" arrival="241.00" arrivalLane="B3top1_0" arrivalPos="286.40" arrivalSpeed="13.36" duration="183.00" routeLength="1748.75" waitingTime="14.00" waitingCount="4" stopTime="0.00" timeLoss="50.26" rerouteNo="0" devices="tripinfo_8" vType="DEFAULT_VEHTYPE" speedFactor="0.97" vaporized=""/>
    <tripinfo id="19" depart="104.00" departLane="bottom2C0_0" departPos="5.10" departSpeed="0.00" departDelay="0.00" arrival="241.00" arrivalLane="C3top2_0" arrivalPos="286.40" arrivalSpeed="13.79" duration="137.00" routeLength="1495.58" waitingTime="17.00" waitingCount="1" stopTime="0.00" timeLoss="31.06" rerouteNo="0" devices="tripinfo_19" vType="DEFAULT_VEHTYPE" speedFactor="1.02" vaporized=""/>
    <tripinfo id="18" depart="104.00" departLane="right3D3_0" departPos="5.10" departSpeed="0.00" departDelay="0.00" arrival="242.00" arrivalLane="A3top0_0" arrivalPos="286.40" arrivalSpeed="13.54" duration="138.00" routeLength="1477.24" waitingTime="8.00" waitingCount="2" stopTime="0.00" timeLoss="28.43" rerouteNo="0" devices="tripinfo_18" vType="DEFAULT_VEHTYPE" speedFactor="0.98" vaporized=""/>
    <tripinfo id="20" depart="105.00" departLane="bottom1B0_0" departPos="5.10" departSpeed="0.00" departDelay="0.00" arrival="248.00" arrivalLane="B3top1_0" arrivalPos="286.40" arrivalSpeed="14.38" duration="143.00" routeLength="1495.58" waitingTime="11.00" waitingCount="3" stopTime="0.00" timeLoss="38.93" rerouteNo="0" devices="tripinfo_20" vType="DEFAULT_VEHTYPE" speedFactor="1.04" vaporized=""/>
    <tripinfo id="22" depart="113.00" departLane="bottom2C0_0" departPos="5.10" departSpeed="0.00" departDelay="0.00" arrival="249.00" arrivalLane="A0left0_0" arrivalPos="286.40" arrivalSpeed="13.07" duration="136.00" routeLength="1195.18" waitingTime="32.00" waitingCount="2" stopTime="0.00" timeLoss="50.03" rerouteNo="0" devices="tripinfo_22" vType="DEFAULT_VEHTYPE" speedFactor="1.01" vaporized=""/>
    <tripinfo id="32" depart="147.00" departLane="right1D1_0" departPos="5.10" departSpeed="0.00" departDelay="0.00" arrival="256.00" arrivalLane="D3top3_0" arrivalPos="286.40" arrivalSpeed="15.65" duration="109.00" routeLength="1179.77" waitingTime="11.00" waitingCount="3" stopTime="0.00" timeLoss="36.95" rerouteNo="0" devices="tripinfo_32" vType="DEFAULT_VEHTYPE" speedFactor="1.19" vaporized=""/>
    <tripinfo id="12" depart="77.00" departLane="left1A1_0" departPos="5.10" departSpeed="0.00" departDelay="0.00" arrival="258.00" arrivalLane="D1right1_0" arrivalPos="286.40" arrivalSpeed="14.19" duration="181.00" routeLength="1495.58" waitingTime="48.00" waitingCount="4" stopTime="0.00" timeLoss="80.16" rerouteNo="0" devices="tripinfo_12" vType="DEFAULT_VEHTYPE" speedFactor="1.07" vaporized=""/>
    <tripinfo id="13" depart="82.00" departLane="right0D0_0" departPos="5.10" departSpeed="0.00" departDelay="0.00" arrival="259.00" arrivalLane="D0right0_0" arrivalPos="286.40" arrivalSpeed="12.40" duration="177.00" routeLength="1748.75" waitingTime="13.00" waitingCount="3" stopTime="0.00" timeLoss="42.77" rerouteNo="0" devices="tripinfo_13" vType="DEFAULT_VEHTYPE" speedFactor="0.96" vaporized=""/>
    <tripinfo id="24" depart="119.00" departLane="left0A0_0" departPos="5.10" departSpeed="0.00" departDelay="0.00" arrival="259.00" arrivalLane="A2left2_0" arrivalPos="286.40" arrivalSpeed="14.07" duration="140.00" routeLength="1197.66" waitingTime="36.00" waitingCount="2" stopTime="0.00" timeLoss="55.95" rerouteNo="0" devices="tripinfo_24" vType="DEFAULT_VEHTYPE" speedFactor="1.05" vaporized=""/>
    <tripinfo id="26" depart="132.00" departLane="bottom2C0_0" departPos="5.10" departSpeed="0.00" departDelay="0.00" arrival="271.00" arrivalLane="A0left0_0" arrivalPos="286.40" arrivalSpeed="12.65" duration="139.00" routeLength="1195.18" waitingTime="21.00" waitingCount="2" stopTime="0.00" timeLoss="45.62" rerouteNo="0" devices="tripinfo_26" vType="DEFAULT_VEHTYPE" speedFactor="0.94" vaporized=""/>
    <tripinfo id="7" depart="57.00" departLane="left2A2_0" departPos="5.10" departSpeed="0.00" departDelay="0.00" arrival="279.00" arrivalLane="C0bottom2_0" arrivalPos="286.40" arrivalSpeed="13.24" duration="222.00" routeLength="1780.11" waitingTime="57.00" waitingCount="5" stopTime="0.00" timeLoss="95.65" rerouteNo="0" devices="tripinfo_7" vType="DEFAULT_VEHTYPE" speedFactor="1.02" vaporized=""/>
    <tripinfo id="30" depart="143.00" departLane="bottom2C0_0" departPos="5.10" departSpeed="0.00" departDelay="0.00" arrival="288.00" arrivalLane="A0bottom0_0" arrivalPos="286.40" arrivalSpeed="14.35" duration="145.00" routeLength="1197.66" waitingTime="38.00" waitingCount="2" stopTime="0.00" timeLoss="62.69" rerouteNo="0" devices="tripinfo_30" vType="DEFAULT_VEHTYPE" speedFactor="1.06" vaporized=""/>
    <tripinfo id="29" depart="138.00" departLane="top0A3_0" departPos="5.10" departSpeed="0.00" departDelay="0.00" arrival="291.00" arrivalLane="D3right3_0" arrivalPos="286.40" arrivalSpeed="11.66" duration="153.00" routeLength="1495.35" waitingTime="5.00" waitingCount="1" stopTime="0.00" timeLoss="34.64" rerouteNo="0" devices="tripinfo_29" vType="DEFAULT_VEHTYPE" speedFactor="0.92" vaporized=""/>
    <tripinfo id="39" depart="175.00" departLane="right3D3_0" departPos="5.10" departSpeed="0.00" departDelay="0.00" arrival="292.00" arrivalLane="A3top0_0" arrivalPos="286.40" arrivalSpeed="14.31" duration="117.00" routeLength="1477.24" waitingTime="0.00" waitingCount="0" stopTime="0.00" timeLoss="15.40" rerouteNo="0" devices="tripinfo_39" vType="DEFAULT_VEHTYPE" speedFactor="1.06" vaporized=""/>
    <tripinfo id="21" depart="105.00" departLane="right2D2_0" departPos="5.10" departSpeed="0.00" departDelay="0.00" arrival="298.00" arrivalLane="A2left2_0" arrivalPos="286.40" arrivalSpeed="11.77" duration="193.00" routeLength="1495.58" waitingTime="45.00" waitingCount="3" stopTime="0.00" timeLoss="70.41" rerouteNo="0" devices="tripinfo_21" vType="DEFAULT_VEHTYPE" speedFactor="0.88" vaporized=""/>
    <tripinfo id="11" depart="73.00" departLane="bottom3D0_0" departPos="5.10" departSpeed="0.00" departDelay="0.00" arrival="307.00" arrivalLane="B3top1_0" arrivalPos="286.40" arrivalSpeed="13.78" duration="234.00" routeLength="2080.05" waitingTime="51.00" waitingCount="6" stopTime="0.00" timeLoss="94.47" rerouteNo="0" devices="tripinfo_11" vType="DEFAULT_VEHTYPE" speedFactor="1.08" vaporized=""/>
    <tripinfo id="28" depart="138.00" departLane="right2D2_0" departPos="5.10" departSpeed="0.00" departDelay="0.00" arrival="310.00" arrivalLane="D2right2_0" arrivalPos="286.40" arrivalSpeed="12.87" duration="172.00" routeLength="1748.75" waitingTime="10.00" waitingCount="3" stopTime="0.00" timeLoss="38.73" rerouteNo="0" devices="tripinfo_28" vType="DEFAULT_VEHTYPE" speedFactor="0.96" vaporized=""/>
    <tripinfo id="17" depart="102.00" departLane="left2A2_0" departPos="5.10" departSpeed="0.00" departDelay="0.00" arrival="311.00" arrivalLane="D0bottom3_0" arrivalPos="286.40" arrivalSpeed="12.39" duration="209.00" routeLength="2080.28" waitingTime="18.00" waitingCount="3" stopTime="0.00" timeLoss="46.80" rerouteNo="0" devices="tripinfo_17" vType="DEFAULT_VEHTYPE" speedFactor="0.93" vaporized=""/>
    <tripinfo id="46" depart="238.00" departLane="bottom2C0_0" departPos="5.10" departSpeed="0.00" departDelay="0.00" arrival="319.00" arrivalLane="D0bottom3_0" arrivalPos="286.40" arrivalSpeed="13.58" duration="81.00" routeLength="858.56" waitingTime="2.00" waitingCount="2" stopTime="0.00" timeLoss="17.72" rerouteNo="0" devices="tripinfo_46" vType="DEFAULT_VEHTYPE" speedFactor="1.01" vaporized=""/>
    <tripinfo id="6" depart="55.00" departLane="right3D3_0" departPos="5.10" departSpeed="0.00" departDelay="0.00" arrival="321.00" arrivalLane="A1left1_0" arrivalPos="286.40" arrivalSpeed="11.94" duration="266.00" routeLength="2080.05" waitingTime="64.00" waitingCount="4" stopTime="0.00" timeLoss="103.10" rerouteNo="0" devices="tripinfo_6" vType="DEFAULT_VEHTYPE" speedFactor="0.93" vaporized=""/>
    <tripinfo id="14" depart="90.00" departLane="left0A0_0" departPos="5.10" departSpeed="0.00" departDelay="0.00" arrival="321.00" arrivalLane="C3top2_1" arrivalPos="286.40" arrivalSpeed="13.43" duration="231.00" routeLength="2095.69" waitingTime="41.00" waitingCount="4" stopTime="0.00" timeLoss="79.48" rerouteNo="0" devices="tripinfo_14" vType="DEFAULT_VEHTYPE" speedFactor="1.00" vaporized=""/>
    <tripinfo id="16" depart="98.00" departLane="left1A1_0" departPos="5.10" departSpeed="0.00" departDelay="0.00" arrival="323.00" arrivalLane="C3top2_0" arrivalPos="286.40" arrivalSpeed="10.67" duration="225.00" routeLength="1795.52" waitingTime="43.00" waitingCount="3" stopTime="0.00" timeLoss="73.21" rerouteNo="0" devices="tripinfo_16" vType="DEFAULT_VEHTYPE" speedFactor="0.86" vaporized=""/>
    <tripinfo id="33" depart="153.00" departLane="bottom2C0_0" departPos="5.10" departSpeed="0.00" departDelay="0.00" arrival="332.00" arrivalLane="D2right2_0" arrivalPos="286.40" arrivalSpeed="11.41" duration="179.00" routeLength="1479.94" waitingTime="36.00" waitingCount="2" stopTime="0.00" timeLoss="56.80" rerouteNo="0" devices="tripinfo_33" vType="DEFAULT_VEHTYPE" speedFactor="0.88" vaporized=""/>
    <tripinfo id="27" depart="136.00" departLane="left2A2_0" departPos="5.10" departSpeed="0.00" departDelay="0.00" arrival="337.00" arrivalLane="C0bottom2_0" arrivalPos="286.40" arrivalSpeed="14.99" duration="201.00" routeLength="1780.11" waitingTime="44.00" waitingCount="5" stopTime="0.00" timeLoss="86.50" rerouteNo="0" devices="tripinfo_27" vType="DEFAULT_VEHTYPE" speedFactor="1.13" vaporized=""/>
    <tripinfo id="45" depart="231.00" departLane="bottom1B0_0" departPos="5.10" departSpeed="0.00" departDelay="0.00" arrival="339.00" arrivalLane="D0right0_0" arrivalPos="286.40" arrivalSpeed="12.91" duration="108.00" routeLength="1179.77" waitingTime="6.00" waitingCount="1" stopTime="0.00" timeLoss="20.99" rerouteNo="0" devices="tripinfo_45" vType="DEFAULT_VEHTYPE" speedFactor="0.98" vaporized=""/>
    <tripinfo id="47" depart="251.00" departLane="top2C3_0" departPos="5.10" departSpeed="0.00" departDelay="0.00" arrival="341.00" arrivalLane="A3left3_0" arrivalPos="286.40" arrivalSpeed="14.79" duration="90.00" routeLength="1179.77" waitingTime="1.00" waitingCount="1" stopTime="0.00" timeLoss="12.36" rerouteNo="0" devices="tripinfo_47" vType="DEFAULT_VEHTYPE" speedFactor="1.10" vaporized=""/>
    <tripinfo id="36" depart="167.00" departLane="top2C3_0" departPos="5.10" departSpeed="0.00" departDelay="0.00" arrival="355.00" arrivalLane="A0left0_0" arrivalPos="286.40" arrivalSpeed="15.23" duration="188.00" routeLength="2080.28" waitingTime="27.00" waitingCount="3" stopTime="0.00" timeLoss="58.27" rerouteNo="0" devices="tripinfo_36" vType="DEFAULT_VEHTYPE" speedFactor="1.16" vaporized=""/>
    <tripinfo id="49" depart="261.00" departLane="bottom1B0_0" departPos="5.10" departSpeed="0.00" departDelay="0.00" arrival="357.00" arrivalLane="D0bottom3_0" arrivalPos="286.40" arrivalSpeed="13.73" duration="96.00" routeLength="1161.43" waitingTime="1.00" waitingCount="1" stopTime="0.00" timeLoss="13.67" rerouteNo="0" devices="tripinfo_49" vType="DEFAULT_VEHTYPE" speedFactor="1.03" vaporized=""/>
    <tripinfo id="41" depart="217.00" departLane="bottom0A0_0" departPos="5.10" departSpeed="0.00" departDelay="0.00" arrival="360.00" arrivalLane="A3left3_0" arrivalPos="286.40" arrivalSpeed="12.59" duration="143.00" routeLength="1498.06" waitingTime="8.00" waitingCount="2" stopTime="0.00" timeLoss="27.14" rerouteNo="0" devices="tripinfo_41" vType="DEFAULT_VEHTYPE" speedFactor="0.94" vaporized=""/>
    <tripinfo id="23" depart="118.00" departLane="bottom1B0_0" departPos="5.10" departSpeed="0.00" departDelay="0.00" arrival="369.00" arrivalLane="D3top3_0" arrivalPos="286.40" arrivalSpeed="12.71" duration="251.00" routeLength="2082.76" waitingTime="65.00" waitingCount="4" stopTime="0.00" timeLoss="98.53" rerouteNo="0" devices="tripinfo_23" vType="DEFAULT_VEHTYPE" speedFactor="0.99" vaporized=""/>
    <tripinfo id="34" depart="155.00" departLane="left3A3_0" departPos="5.10" departSpeed="0.00" departDelay="0.00" arrival="369.00" arrivalLane="D0bottom3_0" arrivalPos="286.40" arrivalSpeed="13.89" duration="214.00" routeLength="2380.45" waitingTime="19.00" waitingCount="2" stopTime="0.00" timeLoss="44.23" rerouteNo="0" devices="tripinfo_34" vType="DEFAULT_VEHTYPE" speedFactor="1.02" vaporized=""/>
    <tripinfo id="37" depart="168.00" departLane="right3D3_0" departPos="5.10" departSpeed="0.00" departDelay="0.00" arrival="376.00" arrivalLane="A1left1_0" arrivalPos="286.40" arrivalSpeed="12.20" duration="208.00" routeLength="2080.05" waitingTime="15.00" waitingCount="3" stopTime="0.00" timeLoss="43.76" rerouteNo="0" devices="tripinfo_37" vType="DEFAULT_VEHTYPE" speedFactor="0.92" vaporized=""/>
    <tripinfo id="40" depart="205.00" departLane="bottom3D0_0" departPos="5.10" departSpeed="0.00" departDelay="0.00" arrival="387.00" arrivalLane="D3top3_0" arrivalPos="286.40" arrivalSpeed="14.78" duration="182.00" routeLength="1495.58" waitingTime="59.00" waitingCount="3" stopTime="0.00" timeLoss="83.21" rerouteNo="0" devices="tripinfo_40" vType="DEFAULT_VEHTYPE" speedFactor="1.09" vaporized=""/>
    <tripinfo id="42" depart="219.00" departLane="right1D1_0" departPos="5.10" departSpeed="0.00" departDelay="0.00" arrival="392.00" arrivalLane="A0left0_0" arrivalPos="286.40" arrivalSpeed="13.78" duration="173.00" routeLength="1782.59" waitingTime="18.00" waitingCount="3" stopTime="0.00" timeLoss="42.58" rerouteNo="0" devices="tripinfo_42" vType="DEFAULT_VEHTYPE" speedFactor="1.00" vaporized=""/>
    <tripinfo id="44" depart="223.00" departLane="left3A3_0" departPos="5.10" departSpeed="0.00" departDelay="0.00" arrival="398.00" arrivalLane="D3right3_0" arrivalPos="286.40" arrivalSpeed="13.33" duration="175.00" routeLength="1495.58" waitingTime="39.00" waitingCount="4" stopTime="0.00" timeLoss="70.17" rerouteNo="0" devices="tripinfo_44" vType="DEFAULT_VEHTYPE" speedFactor="1.03" vaporized=""/>
    <tripinfo id="51" depart="286.00" departLane="top1B3_0" departPos="5.10" departSpeed="0.00" departDelay="0.00" arrival="402.00" arrivalLane="D3right3_0" arrivalPos="286.40" arrivalSpeed="12.73" duration="116.00" routeLength="1195.18" waitingTime="10.00" waitingCount="2" stopTime="0.00" timeLoss="27.30" rerouteNo="0" devices="tripinfo_51" vType="DEFAULT_VEHTYPE" speedFactor="0.98" vaporized=""/>
    <tripinfo id="38" depart="173.00" departLane="top3D3_0" departPos="5.10" departSpeed="0.00" departDelay="0.00" arrival="411.00" arrivalLane="A0bottom0_0" arrivalPos="286.40" arrivalSpeed="12.77" duration="238.00" routeLength="2382.93" waitingTime="17.00" waitingCount="2" stopTime="0.00" timeLoss="51.35" rerouteNo="0" devices="tripinfo_38" vType="DEFAULT_VEHTYPE" speedFactor="0.93" vaporized=""/>
    <tripinfo id="35" depart="164.00" departLane="bottom0A0_0" departPos="5.10" departSpeed="0.00" departDelay="0.00" arrival="421.00" arrivalLane="D2right2_0" arrivalPos="286.40" arrivalSpeed="10.73" duration="257.00" routeLength="2080.28" waitingTime="45.00" waitingCount="4" stopTime="0.00" timeLoss="82.86" rerouteNo="0" devices="tripinfo_35" vType="DEFAULT_VEHTYPE" speedFactor="0.86" vaporized=""/>
    <tripinfo id="63" depart="335.00" departLane="left2A2_0" departPos="5.10" departSpeed="0.00" departDelay="0.00" arrival="426.00" arrivalLane="A3left3_0" arrivalPos="286.40" arrivalSpeed="15.61" duration="91.00" routeLength="894.86" waitingTime="19.00" waitingCount="2" stopTime="0.00" timeLoss="34.70" rerouteNo="0" devices="tripinfo_63" vType="DEFAULT_VEHTYPE" speedFactor="1.17" vaporized=""/>
    <tripinfo id="43" depart="221.00" departLane="left2A2_0" departPos="5.10" departSpeed="0.00" departDelay="0.00" arrival="428.00" arrivalLane="D1right1_0" arrivalPos="286.40" arrivalSpeed="13.97" duration="207.00" routeLength="1782.72" waitingTime="50.00" waitingCount="4" stopTime="0.00" timeLoss="81.87" rerouteNo="0" devices="tripinfo_43" vType="DEFAULT_VEHTYPE" speedFactor="1.04" vaporized=""/>
    <tripinfo id="53" depart="305.00" departLane="left2A2_0" departPos="5.10" departSpeed="0.00" departDelay="0.00" arrival="430.00" arrivalLane="B3top1_0" arrivalPos="286.40" arrivalSpeed="13.41" duration="125.00" routeLength="1195.18" waitingTime="19.00" waitingCount="2" stopTime="0.00" timeLoss="36.21" rerouteNo="0" devices="tripinfo_53" vType="DEFAULT_VEHTYPE" speedFactor="0.98" vaporized=""/>
    <tripinfo id="68" depart="357.00" departLane="bottom3D0_0" departPos="5.10" departSpeed="0.00" departDelay="0.00" arrival="436.00" arrivalLane="D1right1_0" arrivalPos="286.40" arrivalSpeed="12.55" duration="79.00" routeLength="876.90" waitingTime="1.00" waitingCount="1" stopTime="0.00" timeLoss="13.58" rerouteNo="0" devices="tripinfo_68" vType="DEFAULT_VEHTYPE" speedFactor="0.97" vaporized=""/>
    <tripinfo id="70" depart="364.00" departLane="bottom1B0_0" departPos="5.10" departSpeed="0.00" departDelay="0.00" arrival="436.00" arrivalLane="C0bottom2_0" arrivalPos="286.40" arrivalSpeed="14.41" duration="72.00" routeLength="858.56" waitingTime="1.00" waitingCount="1" stopTime="0.00" timeLoss="14.87" rerouteNo="0" devices="tripinfo_70" vType="DEFAULT_VEHTYPE" speedFactor="1.10" vaporized=""/>
    <tripinfo id="52" depart="288.00" departLane="bottom0A0_0" departPos="5.10" departSpeed="0.00" departDelay="0.00" arrival="444.00" arrivalLane="D0right0_0" arrivalPos="286.40" arrivalSpeed="10.78" duration="156.00" routeLength="1479.94" waitingTime="8.00" waitingCount="1" stopTime="0.00" timeLoss="23.72" rerouteNo="0" devices="tripinfo_52" vType="DEFAULT_VEHTYPE" speedFactor="0.81" vaporized=""/>
    <tripinfo id="62" depart="333.00" departLane="left1A1_0" departPos="5.10" departSpeed="0.00" departDelay="0.00" arrival="447.00" arrivalLane="A3top0_0" arrivalPos="286.40" arrivalSpeed="14.53" duration="114.00" routeLength="1195.18" waitingTime="14.00" waitingCount="2" stopTime="0.00" timeLoss="36.55" rerouteNo="0" devices="tripinfo_62" vType="DEFAULT_VEHTYPE" speedFactor="1.12" vaporized=""/>
    <tripinfo id="56" depart="308.00" departLane="top1B3_0" departPos="5.10" departSpeed="0.00" departDelay="0.00" arrival="454.00" arrivalLane="D3top3_0" arrivalPos="286.40" arrivalSpeed="11.78" duration="146.00" routeLength="1197.66" waitingTime="24.00" waitingCount="2" stopTime="0.00" timeLoss="42.52" rerouteNo="0" devices="tripinfo_56" vType="DEFAULT_VEHTYPE" speedFactor="0.85" vaporized=""/>
    <tripinfo id="54" depart="306.00" departLane="left1A1_0" departPos="5.10" departSpeed="0.00" departDelay="0.00" arrival="457.00" arrivalLane="D2right2_0" arrivalPos="286.40" arrivalSpeed="14.18" duration="151.00" routeLength="1782.59" waitingTime="6.00" waitingCount="2" stopTime="0.00" timeLoss="34.06" rerouteNo="0" devices="tripinfo_54" vType="DEFAULT_VEHTYPE" speedFactor="1.11" vaporized=""/>
    <tripinfo id="65" depart="345.00" departLane="top3D3_0" departPos="5.10" departSpeed="0.00" departDelay="0.00" arrival="457.00" arrivalLane="B3top1_0" arrivalPos="286.40" arrivalSpeed="16.14" duration="112.00" routeLength="1161.43" waitingTime="18.00" waitingCount="2" stopTime="0.00" timeLoss="38.75" rerouteNo="0" devices="tripinfo_65" vType="DEFAULT_VEHTYPE" speedFactor="1.17" vaporized=""/>
    <tripinfo id="75" depart="388.00" departLane="bottom0A0_0" departPos="5.10" departSpeed="0.00" departDelay="0.00" arrival="460.00" arrivalLane="A0left0_0" arrivalPos="286.40" arrivalSpeed="12.67" duration="72.00" routeLength="597.55" waitingTime="16.00" waitingCount="1" stopTime="0.00" timeLoss="26.08" rerouteNo="0" devices="tripinfo_75" vType="DEFAULT_VEHTYPE" speedFactor="0.95" vaporized=""/>
    <tripinfo id="64" depart="343.00" departLane="bottom1B0_0" departPos="5.10" departSpeed="0.00" departDelay="0.00" arrival="463.00" arrivalLane="D0bottom3_0" arrivalPos="286.40" arrivalSpeed="13.70" duration="120.00" routeLength="1161.43" waitingTime="19.00" waitingCount="1" stopTime="0.00" timeLoss="35.01" rerouteNo="0" devices="tripinfo_64" vType="DEFAULT_VEHTYPE" speedFactor="1.00" vaporized=""/>
    <tripinfo id="57" depart="313.00" departLane="right1D1_0" departPos="5.10" departSpeed="0.00" departDelay="0.00" arrival="464.00" arrivalLane="C0bottom2_0" arrivalPos="286.40" arrivalSpeed="10.46" duration="151.00" routeLength="1195.18" waitingTime="21.00" waitingCount="3" stopTime="0.00" timeLoss="43.96" rerouteNo="0" devices="tripinfo_57" vType="DEFAULT_VEHTYPE" speedFactor="0.81" vaporized=""/>
    <tripinfo id="83" depart="413.00" departLane="right3D3_0" departPos="5.10" departSpeed="0.00" departDelay="0.00" arrival="466.00" arrivalLane="D3top3_0" arrivalPos="286.40" arrivalSpeed="11.84" duration="53.00" routeLength="576.73" waitingTime="0.00" waitingCount="0" stopTime="0.00" timeLoss="6.34" rerouteNo="0" devices="tripinfo_83" vType="DEFAULT_VEHTYPE" speedFactor="0.91" vaporized=""/>
    <tripinfo id="76" depart="391.00" departLane="left0A0_0" departPos="5.10" departSpeed="0.00" departDelay="0.00" arrival="472.00" arrivalLane="B0bottom1_0" arrivalPos="286.40" arrivalSpeed="15.56" duration="81.00" routeLength="876.90" waitingTime="9.00" waitingCount="2" stopTime="0.00" timeLoss="26.97" rerouteNo="0" devices="tripinfo_76" vType="DEFAULT_VEHTYPE" speedFactor="1.18" vaporized=""/>
    <tripinfo id="73" depart="384.00" departLane="bottom3D0_0" departPos="5.10" departSpeed="0.00" departDelay="0.00" arrival="482.00" arrivalLane="D2right2_0" arrivalPos="286.40" arrivalSpeed="13.81" duration="98.00" routeLength="1177.07" waitingTime="1.00" waitingCount="1" stopTime="0.00" timeLoss="13.79" rerouteNo="0" devices="tripinfo_73" vType="DEFAULT_VEHTYPE" speedFactor="1.02" vaporized=""/>
    <tripinfo id="58" depart="321.00" departLane="left2A2_0" departPos="5.10" departSpeed="0.00" departDelay="0.00" arrival="485.00" arrivalLane="C0bottom2_0" arrivalPos="286.40" arrivalSpeed="12.35" duration="164.00" routeLength="1780.11" waitingTime="7.00" waitingCount="1" stopTime="0.00" timeLoss="24.64" rerouteNo="0" devices="tripinfo_58" vType="DEFAULT_VEHTYPE" speedFactor="0.93" vaporized=""/>
    <tripinfo id="50" depart="280.00" departLane="top2C3_0" departPos="5.10" departSpeed="0.00" departDelay="0.00" arrival="490.00" arrivalLane="D0bottom3_0" arrivalPos="286.40" arrivalSpeed="12.72" duration="210.00" routeLength="1782.59" waitingTime="43.00" waitingCount="5" stopTime="0.00" timeLoss="77.38" rerouteNo="0" devices="tripinfo_50" vType="DEFAULT_VEHTYPE" speedFactor="0.98" vaporized=""/>
    <tripinfo id="59" depart="325.00" departLane="right0D0_0" departPos="5.10" departSpeed="0.00" departDelay="0.00" arrival="494.00" arrivalLane="D3top3_0" arrivalPos="286.40" arrivalSpeed="10.87" duration="169.00" routeLength="1479.94" waitingTime="11.00" waitingCount="3" stopTime="0.00" timeLoss="37.16" rerouteNo="0" devices="tripinfo_59" vType="DEFAULT_VEHTYPE" speedFactor="0.81" vaporized=""/>
    <tripinfo id="60" depart="329.00" departLane="left2A2_0" departPos="5.10" departSpeed="0.00" departDelay="0.00" arrival="514.00" arrivalLane="D3right3_0" arrivalPos="286.40" arrivalSpeed="13.63" duration="185.00" routeLength="1782.59" waitingTime="28.00" waitingCount="3" stopTime="0.00" timeLoss="56.23" rerouteNo="0" devices="tripinfo_60" vType="DEFAULT_VEHTYPE" speedFactor="1.01" vaporized=""/>
    <tripinfo id="88" depart="440.00" departLane="right0D0_0" departPos="5.10" departSpeed="0.00" departDelay="0.00" arrival="516.00" arrivalLane="D1right1_0" arrivalPos="286.40" arrivalSpeed="13.55" duration="76.00" routeLength="858.56" waitingTime="1.00" waitingCount="1" stopTime="0.00" timeLoss="16.90" rerouteNo="0" devices="tripinfo_88" vType="DEFAULT_VEHTYPE" speedFactor="1.06" vaporized=""/>
    <tripinfo id="77" depart="391.00" departLane="right0D0_0" departPos="5.10" departSpeed="0.00" departDelay="0.00" arrival="518.00" arrivalLane="D2right2_0" arrivalPos="286.40" arrivalSpeed="13.06" duration="127.00" routeLength="1161.43" waitingTime="20.00" waitingCount="3" stopTime="0.00" timeLoss="40.15" rerouteNo="0" devices="tripinfo_77" vType="DEFAULT_VEHTYPE" speedFactor="0.98" vaporized=""/>