<?xml version="1.0" encoding="UTF-8"?>

<!-- generated on 12/19/21 17:31:07 by Eclipse SUMO sumo Version 1.7.0
<configuration xmlns:xsi="http://www.w3.org/2001/XMLSchema-instance" xsi:noNamespaceSchemaLocation="http://sumo.dlr.de/xsd/sumoConfiguration.xsd">

    <input>
        <net-file value="C:\Users\longs\Desktop\RESCO-main\environments\grid4x4\grid4x4.net.xml"/>
        <route-files value="C:\Users\longs\Desktop\RESCO-main\environments\grid4x4\grid4x4_10.rou.xml"/>
    </input>

    <output>
        <tripinfo-output value="C:\Users\longs\Desktop\RESCO-main\logs\IDQN-tr1-grid4x4-0-drqlong-delaydiff_pressure09\tripinfo_10.xml"/>
        <tripinfo-output.write-unfinished value="true"/>
    </output>

    <processing>
        <time-to-teleport value="-1"/>
    </processing>

    <report>
        <no-warnings value="true"/>
        <no-step-log value="true"/>
    </report>

    <traci_server>
        <remote-port value="57309"/>
    </traci_server>

    <random_number>
        <random value="true"/>
    </random_number>

</configuration>
-->

<tripinfos xmlns:xsi="http://www.w3.org/2001/XMLSchema-instance" xsi:noNamespaceSchemaLocation="http://sumo.dlr.de/xsd/tripinfo_file.xsd">
    <tripinfo id="8" depart="22.00" departLane="right2D2_0" departPos="5.10" departSpeed="0.00" departDelay="0.00" arrival="105.00" arrivalLane="D3right3_0" arrivalPos="286.40" arrivalSpeed="13.25" duration="83.00" routeLength="858.56" waitingTime="2.00" waitingCount="2" stopTime="0.00" timeLoss="18.41" rerouteNo="0" devices="tripinfo_8" vType="DEFAULT_VEHTYPE" speedFactor="0.97" vaporized=""/>
    <tripinfo id="3" depart="8.00" departLane="right2D2_0" departPos="5.10" departSpeed="0.00" departDelay="0.00" arrival="120.00" arrivalLane="C3top2_0" arrivalPos="286.40" arrivalSpeed="11.92" duration="112.00" routeLength="1179.77" waitingTime="2.00" waitingCount="2" stopTime="0.00" timeLoss="18.95" rerouteNo="0" devices="tripinfo_3" vType="DEFAULT_VEHTYPE" speedFactor="0.92" vaporized=""/>
    <tripinfo id="10" depart="37.00" departLane="left2A2_0" departPos="5.10" departSpeed="0.00" departDelay="0.00" arrival="128.00" arrivalLane="A1left1_0" arrivalPos="286.40" arrivalSpeed="10.61" duration="91.00" routeLength="858.56" waitingTime="2.00" waitingCount="2" stopTime="0.00" timeLoss="17.52" rerouteNo="0" devices="tripinfo_10" vType="DEFAULT_VEHTYPE" speedFactor="0.86" vaporized=""/>
    <tripinfo id="15" depart="55.00" departLane="left3A3_0" departPos="5.10" departSpeed="0.00" departDelay="0.00" arrival="139.00" arrivalLane="A2left2_0" arrivalPos="286.40" arrivalSpeed="12.60" duration="84.00" routeLength="858.56" waitingTime="1.00" waitingCount="1" stopTime="0.00" timeLoss="15.11" rerouteNo="0" devices="tripinfo_15" vType="DEFAULT_VEHTYPE" speedFactor="0.92" vaporized=""/>
    <tripinfo id="1" depart="2.00" departLane="top1B3_0" departPos="5.10" departSpeed="0.00" departDelay="0.00" arrival="164.00" arrivalLane="D3top3_0" arrivalPos="286.40" arrivalSpeed="13.45" duration="162.00" routeLength="1197.66" waitingTime="55.00" waitingCount="2" stopTime="0.00" timeLoss="72.13" rerouteNo="0" devices="tripinfo_1" vType="DEFAULT_VEHTYPE" speedFactor="0.98" vaporized=""/>
    <tripinfo id="7" depart="19.00" departLane="right2D2_0" departPos="5.10" departSpeed="0.00" departDelay="0.00" arrival="194.00" arrivalLane="B3top1_0" arrivalPos="286.40" arrivalSpeed="10.83" duration="175.00" routeLength="1479.94" waitingTime="16.00" waitingCount="4" stopTime="0.00" timeLoss="44.98" rerouteNo="0" devices="tripinfo_7" vType="DEFAULT_VEHTYPE" speedFactor="0.83" vaporized=""/>
    <tripinfo id="0" depart="1.00" departLane="left0A0_0" departPos="5.10" departSpeed="0.00" departDelay="0.00" arrival="200.00" arrivalLane="D1right1_0" arrivalPos="286.40" arrivalSpeed="13.57" duration="199.00" routeLength="1782.59" waitingTime="33.00" waitingCount="5" stopTime="0.00" timeLoss="66.99" rerouteNo="0" devices="tripinfo_0" vType="DEFAULT_VEHTYPE" speedFactor="0.99" vaporized=""/>
    <tripinfo id="5" depart="17.00" departLane="left2A2_0" departPos="5.10" departSpeed="0.00" departDelay="0.00" arrival="205.00" arrivalLane="C0bottom2_0" arrivalPos="286.40" arrivalSpeed="12.57" duration="188.00" routeLength="1780.11" waitingTime="30.00" waitingCount="2" stopTime="0.00" timeLoss="50.05" rerouteNo="0" devices="tripinfo_5" vType="DEFAULT_VEHTYPE" speedFactor="0.94" vaporized=""/>
    <tripinfo id="2" depart="5.00" departLane="top1B3_0" departPos="5.10" departSpeed="0.00" departDelay="3.00" arrival="210.00" arrivalLane="B3top1_0" arrivalPos="286.40" arrivalSpeed="13.31" duration="205.00" routeLength="1748.75" waitingTime="39.00" waitingCount="5" stopTime="0.00" timeLoss="75.70" rerouteNo="0" devices="tripinfo_2" vType="DEFAULT_VEHTYPE" speedFactor="0.99" vaporized=""/>
    <tripinfo id="23" depart="89.00" departLane="right2D2_0" departPos="5.10" departSpeed="0.00" departDelay="0.00" arrival="212.00" arrivalLane="D0bottom3_0" arrivalPos="286.40" arrivalSpeed="13.36" duration="123.00" routeLength="1195.18" waitingTime="23.00" waitingCount="1" stopTime="0.00" timeLoss="36.43" rerouteNo="0" devices="tripinfo_23" vType="DEFAULT_VEHTYPE" speedFactor="1.01" vaporized=""/>
    <tripinfo id="33" depart="148.00" departLane="right0D0_0" departPos="5.10" departSpeed="0.00" departDelay="0.00" arrival="216.00" arrivalLane="C0bottom2_0" arrivalPos="286.40" arrivalSpeed="15.48" duration="68.00" routeLength="897.72" waitingTime="0.00" waitingCount="0" stopTime="0.00" timeLoss="11.88" rerouteNo="0" devices="tripinfo_33" vType="DEFAULT_VEHTYPE" speedFactor="1.16" vaporized=""/>
    <tripinfo id="4" depart="16.00" departLane="left0A0_0" departPos="5.10" departSpeed="0.00" departDelay="0.00" arrival="238.00" arrivalLane="D0right0_0" arrivalPos="286.40" arrivalSpeed="13.36" duration="222.00" routeLength="1495.58" waitingTime="100.00" waitingCount="2" stopTime="0.00" timeLoss="118.83" rerouteNo="0" devices="tripinfo_4" vType="DEFAULT_VEHTYPE" speedFactor="1.05" vaporized=""/>
    <tripinfo id="14" depart="54.00" departLane="top1B3_0" departPos="5.10" departSpeed="0.00" departDelay="0.00" arrival="239.00" arrivalLane="B3top1_1" arrivalPos="286.40" arrivalSpeed="15.24" duration="185.00" routeLength="1748.75" waitingTime="33.00" waitingCount="5" stopTime="0.00" timeLoss="75.81" rerouteNo="0" devices="tripinfo_14" vType="DEFAULT_VEHTYPE" speedFactor="1.18" vaporized=""/>
    <tripinfo id="9" depart="28.00" departLane="right2D2_0" departPos="5.10" departSpeed="0.00" departDelay="0.00" arrival="240.00" arrivalLane="D2right2_0" arrivalPos="286.40" arrivalSpeed="13.00" duration="212.00" routeLength="1748.75" waitingTime="54.00" waitingCount="3" stopTime="0.00" timeLoss="83.85" rerouteNo="0" devices="tripinfo_9" vType="DEFAULT_VEHTYPE" speedFactor="1.00" vaporized=""/>
    <tripinfo id="22" depart="87.00" departLane="top0A3_0" departPos="5.10" departSpeed="0.00" departDelay="0.00" arrival="242.00" arrivalLane="B3top1_0" arrivalPos="286.40" arrivalSpeed="11.81" duration="155.00" routeLength="894.86" waitingTime="66.00" waitingCount="2" stopTime="0.00" timeLoss="82.34" rerouteNo="0" devices="tripinfo_22" vType="DEFAULT_VEHTYPE" speedFactor="0.91" vaporized=""/>
    <tripinfo id="40" depart="176.00" departLane="left2A2_0" departPos="5.10" departSpeed="0.00" departDelay="0.00" arrival="249.00" arrivalLane="A3left3_0" arrivalPos="286.40" arrivalSpeed="14.36" duration="73.00" routeLength="894.86" waitingTime="0.00" waitingCount="0" stopTime="0.00" timeLoss="11.27" rerouteNo="0" devices="tripinfo_40" vType="DEFAULT_VEHTYPE" speedFactor="1.07" vaporized=""/>
    <tripinfo id="48" depart="201.00" departLane="right3D3_0" departPos="5.10" departSpeed="0.00" departDelay="0.00" arrival="251.00" arrivalLane="D3top3_0" arrivalPos="286.40" arrivalSpeed="14.22" duration="50.00" routeLength="576.73" waitingTime="1.00" waitingCount="1" stopTime="0.00" timeLoss="11.05" rerouteNo="0" devices="tripinfo_48" vType="DEFAULT_VEHTYPE" speedFactor="1.10" vaporized=""/>
    <tripinfo id="16" depart="60.00" departLane="bottom2C0_0" departPos="5.10" departSpeed="0.00" departDelay="0.00" arrival="266.00" arrivalLane="D3right3_0" arrivalPos="286.40" arrivalSpeed="15.74" duration="206.00" routeLength="1780.11" waitingTime="66.00" waitingCount="3" stopTime="0.00" timeLoss="94.26" rerouteNo="0" devices="tripinfo_16" vType="DEFAULT_VEHTYPE" speedFactor="1.16" vaporized=""/>
    <tripinfo id="12" depart="47.00" departLane="right3D3_0" departPos="5.10" departSpeed="0.00" departDelay="0.00" arrival="281.00" arrivalLane="A1left1_0" arrivalPos="286.40" arrivalSpeed="13.35" duration="234.00" routeLength="2080.05" waitingTime="48.00" waitingCount="4" stopTime="0.00" timeLoss="84.58" rerouteNo="0" devices="tripinfo_12" vType="DEFAULT_VEHTYPE" speedFactor="1.01" vaporized=""/>
    <tripinfo id="44" depart="187.00" departLane="right2D2_0" departPos="5.10" departSpeed="0.00" departDelay="0.00" arrival="290.00" arrivalLane="D3top3_0" arrivalPos="286.40" arrivalSpeed="13.14" duration="103.00" routeLength="879.60" waitingTime="21.00" waitingCount="2" stopTime="0.00" timeLoss="36.06" rerouteNo="0" devices="tripinfo_44" vType="DEFAULT_VEHTYPE" speedFactor="0.96" vaporized=""/>
    <tripinfo id="37" depart="172.00" departLane="right2D2_0" departPos="5.10" departSpeed="0.00" departDelay="0.00" arrival="293.00" arrivalLane="C3top2_0" arrivalPos="286.40" arrivalSpeed="11.32" duration="121.00" routeLength="1179.77" waitingTime="2.00" waitingCount="2" stopTime="0.00" timeLoss="19.58" rerouteNo="0" devices="tripinfo_37" vType="DEFAULT_VEHTYPE" speedFactor="0.85" vaporized=""/>
    <tripinfo id="24" depart="96.00" departLane="top1B3_0" departPos="5.10" departSpeed="0.00" departDelay="0.00" arrival="299.00" arrivalLane="A0bottom0_0" arrivalPos="286.40" arrivalSpeed="13.07" duration="203.00" routeLength="1782.72" waitingTime="42.00" waitingCount="4" stopTime="0.00" timeLoss="70.66" rerouteNo="0" devices="tripinfo_24" vType="DEFAULT_VEHTYPE" speedFactor="0.98" vaporized=""/>
    <tripinfo id="43" depart="184.00" departLane="top1B3_0" departPos="5.10" departSpeed="0.00" departDelay="0.00" arrival="318.00" arrivalLane="A1left1_0" arrivalPos="286.40" arrivalSpeed="13.42" duration="134.00" routeLength="1479.94" waitingTime="10.00" waitingCount="2" stopTime="0.00" timeLoss="29.59" rerouteNo="0" devices="tripinfo_43" vType="DEFAULT_VEHTYPE" speedFactor="1.02" vaporized=""/>
    <tripinfo id="13" depart="49.00" departLane="top2C3_0" departPos="5.10" departSpeed="0.00" departDelay="0.00" arrival="319.00" arrivalLane="D0right0_0" arrivalPos="286.40" arrivalSpeed="14.07" duration="270.00" routeLength="1795.52" waitingTime="110.00" waitingCount="4" stopTime="0.00" timeLoss="141.90" rerouteNo="0" devices="tripinfo_13" vType="DEFAULT_VEHTYPE" speedFactor="1.02" vaporized=""/>
    <tripinfo id="21" depart="84.00" departLane="right3D3_0" departPos="5.10" departSpeed="0.00" departDelay="0.00" arrival="322.00" arrivalLane="A3top0_0" arrivalPos="286.40" arrivalSpeed="11.52" duration="238.00" routeLength="1477.24" waitingTime="92.00" waitingCount="3" stopTime="0.00" timeLoss="120.02" rerouteNo="0" devices="tripinfo_21" vType="DEFAULT_VEHTYPE" speedFactor="0.91" vaporized=""/>
    <tripinfo id="17" depart="72.00" departLane="left2A2_0" departPos="5.10" departSpeed="0.00" departDelay="0.00" arrival="326.00" arrivalLane="D1right1_0" arrivalPos="286.40" arrivalSpeed="15.92" duration="254.00" routeLength="1782.72" waitingTime="119.00" waitingCount="3" stopTime="0.00" timeLoss="143.86" rerouteNo="0" devices="tripinfo_17" vType="DEFAULT_VEHTYPE" speedFactor="1.18" vaporized=""/>
    <tripinfo id="6" depart="18.00" departLane="right0D0_0" departPos="5.10" departSpeed="0.00" departDelay="0.00" arrival="329.00" arrivalLane="A3left3_0" arrivalPos="286.40" arrivalSpeed="13.48" duration="311.00" routeLength="2382.93" waitingTime="94.00" waitingCount="6" stopTime="0.00" timeLoss="141.85" rerouteNo="0" devices="tripinfo_6" vType="DEFAULT_VEHTYPE" speedFactor="1.02" vaporized=""/>
    <tripinfo id="52" depart="224.00" departLane="left3A3_0" departPos="5.10" departSpeed="0.00" departDelay="0.00" arrival="338.00" arrivalLane="B3top1_0" arrivalPos="286.40" arrivalSpeed="14.24" duration="114.00" routeLength="897.72" waitingTime="41.00" waitingCount="1" stopTime="0.00" timeLoss="52.33" rerouteNo="0" devices="tripinfo_52" vType="DEFAULT_VEHTYPE" speedFactor="1.06" vaporized=""/>
    <tripinfo id="26" depart="129.00" departLane="right3D3_0" departPos="5.10" departSpeed="0.00" departDelay="0.00" arrival="339.00" arrivalLane="A1left1_0" arrivalPos="286.40" arrivalSpeed="13.47" duration="210.00" routeLength="2080.05" waitingTime="33.00" waitingCount="4" stopTime="0.00" timeLoss="66.89" rerouteNo="0" devices="tripinfo_26" vType="DEFAULT_VEHTYPE" speedFactor="1.06" vaporized=""/>
    <tripinfo id="30" depart="134.00" departLane="bottom3D0_0" departPos="5.10" departSpeed="0.00" departDelay="1.00" arrival="340.00" arrivalLane="D3top3_0" arrivalPos="286.40" arrivalSpeed="12.28" duration="206.00" routeLength="1495.58" waitingTime="52.00" waitingCount="4" stopTime="0.00" timeLoss="94.16" rerouteNo="0" devices="tripinfo_30" vType="DEFAULT_VEHTYPE" speedFactor="0.97" vaporized=""/>
    <tripinfo id="49" depart="210.00" departLane="bottom1B0_0" departPos="5.10" departSpeed="0.00" departDelay="0.00" arrival="349.00" arrivalLane="A0bottom0_1" arrivalPos="286.40" arrivalSpeed="14.01" duration="139.00" routeLength="894.86" waitingTime="61.00" waitingCount="2" stopTime="0.00" timeLoss="78.84" rerouteNo="0" devices="tripinfo_49" vType="DEFAULT_VEHTYPE" speedFactor="1.09" vaporized=""/>
    <tripinfo id="36" depart="158.00" departLane="bottom3D0_0" departPos="5.10" departSpeed="0.00" departDelay="0.00" arrival="351.00" arrivalLane="B0bottom1_0" arrivalPos="286.40" arrivalSpeed="9.30" duration="193.00" routeLength="1197.66" waitingTime="42.00" waitingCount="3" stopTime="0.00" timeLoss="65.65" rerouteNo="0" devices="tripinfo_36" vType="DEFAULT_VEHTYPE" speedFactor="0.69" vaporized=""/>
    <tripinfo id="20" depart="83.00" departLane="bottom0A0_0" departPos="5.10" departSpeed="0.00" departDelay="0.00" arrival="353.00" arrivalLane="A0bottom0_0" arrivalPos="286.40" arrivalSpeed="11.81" duration="270.00" routeLength="1748.75" waitingTime="95.00" waitingCount="3" stopTime="0.00" timeLoss="122.44" rerouteNo="0" devices="tripinfo_20" vType="DEFAULT_VEHTYPE" speedFactor="0.87" vaporized=""/>
    <tripinfo id="64" depart="271.00" departLane="left0A0_0" departPos="5.10" departSpeed="0.00" departDelay="0.00" arrival="359.00" arrivalLane="B0bottom1_0" arrivalPos="286.40" arrivalSpeed="11.47" duration="88.00" routeLength="876.90" waitingTime="1.00" waitingCount="1" stopTime="0.00" timeLoss="12.97" rerouteNo="0" devices="tripinfo_64" vType="DEFAULT_VEHTYPE" speedFactor="0.86" vaporized=""/>
    <tripinfo id="19" depart="81.00" departLane="left3A3_0" departPos="5.10" departSpeed="0.00" departDelay="0.00" arrival="363.00" arrivalLane="D1right1_0" arrivalPos="286.40" arrivalSpeed="14.22" duration="282.00" routeLength="2082.76" waitingTime="98.00" waitingCount="5" stopTime="0.00" timeLoss="141.40" rerouteNo="0" devices="tripinfo_19" vType="DEFAULT_VEHTYPE" speedFactor="1.08" vaporized=""/>
    <tripinfo id="11" depart="45.00" departLane="left0A0_0" departPos="5.10" departSpeed="0.00" departDelay="0.00" arrival="367.00" arrivalLane="C3top2_0" arrivalPos="286.40" arrivalSpeed="14.32" duration="322.00" routeLength="2095.69" waitingTime="144.00" waitingCount="5" stopTime="0.00" timeLoss="186.58" rerouteNo="0" devices="tripinfo_11" vType="DEFAULT_VEHTYPE" speedFactor="1.12" vaporized=""/>
    <tripinfo id="71" depart="308.00" departLane="right1D1_0" departPos="5.10" departSpeed="0.00" departDelay="0.00" arrival="391.00" arrivalLane="D2right2_0" arrivalPos="286.40" arrivalSpeed="13.08" duration="83.00" routeLength="858.56" waitingTime="2.00" waitingCount="2" stopTime="0.00" timeLoss="17.00" rerouteNo="0" devices="tripinfo_71" vType="DEFAULT_VEHTYPE" speedFactor="0.96" vaporized=""/>
    <tripinfo id="59" depart="242.00" departLane="top0A3_0" departPos="5.10" departSpeed="0.00" departDelay="1.00" arrival="395.00" arrivalLane="A1left1_0" arrivalPos="286.40" arrivalSpeed="14.17" duration="153.00" routeLength="1177.07" waitingTime="57.00" waitingCount="2" stopTime="0.00" timeLoss="73.83" rerouteNo="0" devices="tripinfo_59" vType="DEFAULT_VEHTYPE" speedFactor="1.09" vaporized=""/>
    <tripinfo id="46" depart="195.00" departLane="bottom2C0_0" departPos="5.10" departSpeed="0.00" departDelay="0.00" arrival="398.00" arrivalLane="B3top1_0" arrivalPos="286.40" arrivalSpeed="14.29" duration="203.00" routeLength="1782.59" waitingTime="47.00" waitingCount="4" stopTime="0.00" timeLoss="80.81" rerouteNo="0" devices="tripinfo_46" vType="DEFAULT_VEHTYPE" speedFactor="1.06" vaporized=""/>
    <tripinfo id="18" depart="74.00" departLane="bottom3D0_0" departPos="5.10" departSpeed="0.00" departDelay="0.00" arrival="400.00" arrivalLane="A3left3_1" arrivalPos="286.40" arrivalSpeed="14.06" duration="326.00" routeLength="2395.86" waitingTime="125.00" waitingCount="4" stopTime="0.00" timeLoss="159.01" rerouteNo="0" devices="tripinfo_18" vType="DEFAULT_VEHTYPE" speedFactor="1.04" vaporized=""/>
    <tripinfo id="35" depart="156.00" departLane="right2D2_0" departPos="5.10" departSpeed="0.00" departDelay="0.00" arrival="400.00" arrivalLane="A3left3_0" arrivalPos="286.40" arrivalSpeed="12.88" duration="244.00" routeLength="1782.72" waitingTime="77.00" waitingCount="4" stopTime="0.00" timeLoss="106.11" rerouteNo="0" devices="tripinfo_35" vType="DEFAULT_VEHTYPE" speedFactor="0.94" vaporized=""/>
    <tripinfo id="66" depart="294.00" departLane="left3A3_0" departPos="5.10" departSpeed="0.00" departDelay="0.00" arrival="417.00" arrivalLane="A0left0_0" arrivalPos="286.40" arrivalSpeed="14.88" duration="123.00" routeLength="1461.60" waitingTime="7.00" waitingCount="2" stopTime="0.00" timeLoss="30.14" rerouteNo="0" devices="tripinfo_66" vType="DEFAULT_VEHTYPE" speedFactor="1.16" vaporized=""/>
    <tripinfo id="68" depart="301.00" departLane="right3D3_0" departPos="5.10" departSpeed="0.00" departDelay="0.00" arrival="422.00" arrivalLane="B3top1_0" arrivalPos="286.40" arrivalSpeed="13.10" duration="121.00" routeLength="1177.07" waitingTime="18.00" waitingCount="2" stopTime="0.00" timeLoss="36.75" rerouteNo="0" devices="tripinfo_68" vType="DEFAULT_VEHTYPE" speedFactor="1.02" vaporized=""/>
    <tripinfo id="34" depart="154.00" departLane="right3D3_0" departPos="5.10" departSpeed="0.00" departDelay="0.00" arrival="427.00" arrivalLane="D0bottom3_0" arrivalPos="286.40" arrivalSpeed="14.61" duration="273.00" routeLength="1495.35" waitingTime="140.00" waitingCount="3" stopTime="0.00" timeLoss="171.95" rerouteNo="0" devices="tripinfo_34" vType="DEFAULT_VEHTYPE" speedFactor="1.07" vaporized=""/>
    <tripinfo id="56" depart="236.00" departLane="top3D3_0" departPos="5.10" departSpeed="0.00" departDelay="0.00" arrival="433.00" arrivalLane="D0right0_0" arrivalPos="286.40" arrivalSpeed="11.99" duration="197.00" routeLength="1498.06" waitingTime="41.00" waitingCount="3" stopTime="0.00" timeLoss="71.23" rerouteNo="0" devices="tripinfo_56" vType="DEFAULT_VEHTYPE" speedFactor="0.87" vaporized=""/>
    <tripinfo id="74" depart="325.00" departLane="left0A0_0" departPos="5.10" departSpeed="0.00" departDelay="0.00" arrival="434.00" arrivalLane="A1left1_0" arrivalPos="286.40" arrivalSpeed="12.61" duration="109.00" routeLength="894.86" waitingTime="30.00" waitingCount="1" stopTime="0.00" timeLoss="40.86" rerouteNo="0" devices="tripinfo_74" vType="DEFAULT_VEHTYPE" speedFactor="0.96" vaporized=""/>
    <tripinfo id="90" depart="387.00" departLane="left0A0_0" departPos="5.10" departSpeed="0.00" departDelay="0.00" arrival="436.00" arrivalLane="A0bottom0_0" arrivalPos="286.40" arrivalSpeed="14.89" duration="49.00" routeLength="576.73" waitingTime="1.00" waitingCount="1" stopTime="0.00" timeLoss="10.15" rerouteNo="0" devices="tripinfo_90" vType="DEFAULT_VEHTYPE" speedFactor="1.10" vaporized=""/>
    <tripinfo id="39" depart="175.00" departLane="top3D3_0" departPos="5.10" departSpeed="0.00" departDelay="0.00" arrival="437.00" arrivalLane="D3top3_0" arrivalPos="286.40" arrivalSpeed="14.98" duration="262.00" routeLength="1748.75" waitingTime="109.00" waitingCount="4" stopTime="0.00" timeLoss="143.97" rerouteNo="0" devices="tripinfo_39" vType="DEFAULT_VEHTYPE" speedFactor="1.09" vaporized=""/>
    <tripinfo id="65" depart="285.00" departLane="bottom3D0_0" departPos="5.10" departSpeed="0.00" departDelay="0.00" arrival="439.00" arrivalLane="B0bottom1_0" arrivalPos="286.40" arrivalSpeed="13.80" duration="154.00" routeLength="1197.66" waitingTime="53.00" waitingCount="2" stopTime="0.00" timeLoss="72.60" rerouteNo="0" devices="tripinfo_65" vType="DEFAULT_VEHTYPE" speedFactor="1.07" vaporized=""/>
    <tripinfo id="38" depart="175.00" departLane="right2D2_0" departPos="5.10" departSpeed="0.00" departDelay="1.00" arrival="441.00" arrivalLane="C0bottom2_0" arrivalPos="286.40" arrivalSpeed="11.87" duration="266.00" routeLength="1495.35" waitingTime="123.00" waitingCount="3" stopTime="0.00" timeLoss="148.57" rerouteNo="0" devices="tripinfo_38" vType="DEFAULT_VEHTYPE" speedFactor="0.93" vaporized=""/>
    <tripinfo id="67" depart="300.00" departLane="top0A3_0" departPos="5.10" departSpeed="0.00" departDelay="0.00" arrival="441.00" arrivalLane="B3top1_1" arrivalPos="286.40" arrivalSpeed="13.76" duration="141.00" routeLength="894.86" waitingTime="66.00" waitingCount="1" stopTime="0.00" timeLoss="78.78" rerouteNo="0" devices="tripinfo_67" vType="DEFAULT_VEHTYPE" speedFactor="1.06" vaporized=""/>
    <tripinfo id="53" depart="225.00" departLane="top0A3_0" departPos="5.10" departSpeed="0.00" departDelay="0.00" arrival="442.00" arrivalLane="B3top1_0" arrivalPos="286.40" arrivalSpeed="11.87" duration="217.00" routeLength="894.86" waitingTime="127.00" waitingCount="2" stopTime="0.00" timeLoss="143.70" rerouteNo="0" devices="tripinfo_53" vType="DEFAULT_VEHTYPE" speedFactor="0.89" vaporized=""/>
    <tripinfo id="32" depart="147.00" departLane="top1B3_0" departPos="5.10" departSpeed="0.00" departDelay="0.00" arrival="443.00" arrivalLane="C0bottom2_0" arrivalPos="286.40" arrivalSpeed="12.51" duration="296.00" routeLength="1782.59" waitingTime="117.00" waitingCount="4" stopTime="0.00" timeLoss="154.61" rerouteNo="0" devices="tripinfo_32" vType="DEFAULT_VEHTYPE" speedFactor="0.92" vaporized=""/>
    <tripinfo id="61" depart="255.00" departLane="bottom3D0_0" departPos="5.10" departSpeed="0.00" departDelay="0.00" arrival="447.00" arrivalLane="D3top3_0" arrivalPos="286.40" arrivalSpeed="15.82" duration="192.00" routeLength="1495.58" waitingTime="61.00" waitingCount="3" stopTime="0.00" timeLoss="97.12" rerouteNo="0" devices="tripinfo_61" vType="DEFAULT_VEHTYPE" speedFactor="1.14" vaporized=""/>
    <tripinfo id="62" depart="256.00" departLane="left0A0_0" departPos="5.10" departSpeed="0.00" departDelay="0.00" arrival="448.00" arrivalLane="D0bottom3_0" arrivalPos="286.40" arrivalSpeed="12.14" duration="192.00" routeLength="1477.24" waitingTime="59.00" waitingCount="1" stopTime="0.00" timeLoss="79.89" rerouteNo="0" devices="tripinfo_62" vType="DEFAULT_VEHTYPE" speedFactor="0.96" vaporized=""/>
    <tripinfo id="25" depart="99.00" departLane="top3D3_0" departPos="5.10" departSpeed="0.00" departDelay="0.00" arrival="449.00" arrivalLane="B0bottom1_0" arrivalPos="286.40" arrivalSpeed="12.44" duration="350.00" routeLength="2082.76" waitingTime="145.00" waitingCount="5" stopTime="0.00" timeLoss="183.07" rerouteNo="0" devices="tripinfo_25" vType="DEFAULT_VEHTYPE" speedFactor="0.91" vaporized=""/>
    <tripinfo id="29" depart="132.00" departLane="top1B3_0" departPos="5.10" departSpeed="0.00" departDelay="0.00" arrival="449.00" arrivalLane="D0right0_0" arrivalPos="286.40" arrivalSpeed="13.10" duration="317.00" routeLength="2095.69" waitingTime="130.00" waitingCount="5" stopTime="0.00" timeLoss="165.71" rerouteNo="0" devices="tripinfo_29" vType="DEFAULT_VEHTYPE" speedFactor="1.00" vaporized=""/>
    <tripinfo id="82" depart="360.00" departLane="top3D3_0" departPos="5.10" departSpeed="0.00" departDelay="0.00" arrival="449.00" arrivalLane="C3top2_0" arrivalPos="286.40" arrivalSpeed="11.01" duration="89.00" routeLength="858.56" waitingTime="2.00" waitingCount="2" stopTime="0.00" timeLoss="17.29" rerouteNo="0" devices="tripinfo_82" vType="DEFAULT_VEHTYPE" speedFactor="0.88" vaporized=""/>
    <tripinfo id="42" depart="183.00" departLane="top2C3_0" departPos="5.10" departSpeed="0.00" departDelay="0.00" arrival="453.00" arrivalLane="D0right0_0" arrivalPos="286.40" arrivalSpeed="12.60" duration="270.00" routeLength="1795.52" waitingTime="111.00" waitingCount="3" stopTime="0.00" timeLoss="135.59" rerouteNo="0" devices="tripinfo_42" vType="DEFAULT_VEHTYPE" speedFactor="0.97" vaporized=""/>
    <tripinfo id="63" depart="258.00" departLane="top1B3_0" departPos="5.10" departSpeed="0.00" departDelay="0.00" arrival="456.00" arrivalLane="D1right1_1" arrivalPos="286.40" arrivalSpeed="14.61" duration="198.00" routeLength="1795.52" waitingTime="51.00" waitingCount="2" stopTime="0.00" timeLoss="74.58" rerouteNo="0" devices="tripinfo_63" vType="DEFAULT_VEHTYPE" speedFactor="1.06" vaporized=""/>
    <tripinfo id="51" depart="217.00" departLane="bottom1B0_0" departPos="5.10" departSpeed="0.00" departDelay="0.00" arrival="458.00" arrivalLane="D1right1_0" arrivalPos="286.40" arrivalSpeed="12.04" duration="241.00" routeLength="1479.94" waitingTime="98.00" waitingCount="2" stopTime="0.00" timeLoss="119.44" rerouteNo="0" devices="tripinfo_51" vType="DEFAULT_VEHTYPE" speedFactor="0.89" vaporized=""/>
    <tripinfo id="76" depart="330.00" departLane="right2D2_0" departPos="5.10" departSpeed="0.00" departDelay="0.00" arrival="458.00" arrivalLane="D0right0_0" arrivalPos="286.40" arrivalSpeed="14.19" duration="128.00" routeLength="1197.66" waitingTime="28.00" waitingCount="2" stopTime="0.00" timeLoss="46.31" rerouteNo="0" devices="tripinfo_76" vType="DEFAULT_VEHTYPE" speedFactor="1.08" vaporized=""/>
    <tripinfo id="57" depart="238.00" departLane="bottom3D0_0" departPos="5.10" departSpeed="0.00" departDelay="0.00" arrival="461.00" arrivalLane="C3top2_0" arrivalPos="286.40" arrivalSpeed="11.61" duration="223.00" routeLength="1782.59" waitingTime="54.00" waitingCount="4" stopTime="0.00" timeLoss="82.86" rerouteNo="0" devices="tripinfo_57" vType="DEFAULT_VEHTYPE" speedFactor="0.92" vaporized=""/>
    <tripinfo id="79" depart="339.00" departLane="left1A1_0" departPos="5.10" departSpeed="0.00" departDelay="0.00" arrival="462.00" arrivalLane="D1right1_0" arrivalPos="286.40" arrivalSpeed="14.40" duration="123.00" routeLength="1495.58" waitingTime="5.00" waitingCount="1" stopTime="0.00" timeLoss="19.51" rerouteNo="0" devices="tripinfo_79" vType="DEFAULT_VEHTYPE" speedFactor="1.05" vaporized=""/>
    <tripinfo id="50" depart="213.00" departLane="bottom1B0_0" departPos="5.10" departSpeed="0.00" departDelay="0.00" arrival="463.00" arrivalLane="A2left2_0" arrivalPos="286.40" arrivalSpeed="11.26" duration="250.00" routeLength="1495.35" waitingTime="98.00" waitingCount="3" stopTime="0.00" timeLoss="125.03" rerouteNo="0" devices="tripinfo_50" vType="DEFAULT_VEHTYPE" speedFactor="0.87" vaporized=""/>
    <tripinfo id="75" depart="329.00" departLane="bottom3D0_0" departPos="5.10" departSpeed="0.00" departDelay="0.00" arrival="464.00" arrivalLane="A0bottom0_0" arrivalPos="286.40" arrivalSpeed="13.83" duration="135.00" routeLength="1497.83" waitingTime="8.00" waitingCount="1" stopTime="0.00" timeLoss="33.95" rerouteNo="0" devices="tripinfo_75" vType="DEFAULT_VEHTYPE" speedFactor="1.08" vaporized=""/>
    <tripinfo id="85" depart="372.00" departLane="top0A3_0" departPos="5.10" departSpeed="0.00" departDelay="0.00" arrival="479.00" arrivalLane="B3top1_0" arrivalPos="286.40" arrivalSpeed="13.12" duration="107.00" routeLength="894.86" waitingTime="25.00" waitingCount="2" stopTime="0.00" timeLoss="40.93" rerouteNo="0" devices="tripinfo_85" vType="DEFAULT_VEHTYPE" speedFactor="0.99" vaporized=""/>
    <tripinfo id="78" depart="338.00" departLane="bottom1B0_0" departPos="5.10" departSpeed="0.00" departDelay="0.00" arrival="492.00" arrivalLane="A1left1_0" arrivalPos="286.40" arrivalSpeed="10.82" duration="154.00" routeLength="1195.18" waitingTime="33.00" waitingCount="2" stopTime="0.00" timeLoss="53.02" rerouteNo="0" devices="tripinfo_78" vType="DEFAULT_VEHTYPE" speedFactor="0.86" vaporized=""/>
    <tripinfo id="60" depart="246.00" departLane="right2D2_0" departPos="5.10" departSpeed="0.00" departDelay="0.00" arrival="507.00" arrivalLane="A3top0_0" arrivalPos="286.40" arrivalSpeed="13.40" duration="261.00" routeLength="1780.11" waitingTime="107.00" waitingCount="4" stopTime="0.00" timeLoss="137.21" rerouteNo="0" devices="tripinfo_60" vType="DEFAULT_VEHTYPE" speedFactor="1.05" vaporized=""/>
    <tripinfo id="54" depart="228.00" departLane="bottom2C0_0" departPos="5.10" departSpeed="0.00" departDelay="0.00" arrival="510.00" arrivalLane="D3right3_0" arrivalPos="286.40" arrivalSpeed="12.20" duration="282.00" routeLength="1780.11" waitingTime="118.00" waitingCount="4" stopTime="0.00" timeLoss="148.25" rerouteNo="0" devices="tripinfo_54" vType="DEFAULT_VEHTYPE" speedFactor="0.96" vaporized=""/>
    <tripinfo id="70" depart="308.00" departLane="top3D3_0" departPos="5.10" departSpeed="0.00" departDelay="0.00" arrival="510.00" arrivalLane="A2left2_0" arrivalPos="286.40" arrivalSpeed="11.92" duration="202.00" routeLength="1780.11" waitingTime="42.00" waitingCount="2" stopTime="0.00" timeLoss="62.67" rerouteNo="0" devices="tripinfo_70" vType="DEFAULT_VEHTYPE" speedFactor="0.93" vaporized=""/>