<?xml version="1.0" encoding="UTF-8"?>

<!-- generated on 12/19/21 18:24:40 by Eclipse SUMO sumo Version 1.7.0
<configuration xmlns:xsi="http://www.w3.org/2001/XMLSchema-instance" xsi:noNamespaceSchemaLocation="http://sumo.dlr.de/xsd/sumoConfiguration.xsd">

    <input>
        <net-file value="C:\Users\longs\Desktop\RESCO-main\environments\grid4x4\grid4x4.net.xml"/>
        <route-files value="C:\Users\longs\Desktop\RESCO-main\environments\grid4x4\grid4x4_64.rou.xml"/>
    </input>

    <output>
        <tripinfo-output value="C:\Users\longs\Desktop\RESCO-main\logs\IDQN-tr1-grid4x4-0-drqlong-delaydiff_pressure09\tripinfo_64.xml"/>
        <tripinfo-output.write-unfinished value="true"/>
    </output>

    <processing>
        <time-to-teleport value="-1"/>
    </processing>

    <report>
        <no-warnings value="true"/>
        <no-step-log value="true"/>
    </report>

    <traci_server>
        <remote-port value="59062"/>
    </traci_server>

    <random_number>
        <random value="true"/>
    </random_number>

</configuration>
-->

<tripinfos xmlns:xsi="http://www.w3.org/2001/XMLSchema-instance" xsi:noNamespaceSchemaLocation="http://sumo.dlr.de/xsd/tripinfo_file.xsd">
    <tripinfo id="0" depart="7.00" departLane="top3D3_0" departPos="5.10" departSpeed="0.00" departDelay="0.00" arrival="109.00" arrivalLane="D1right1_0" arrivalPos="286.40" arrivalSpeed="12.99" duration="102.00" routeLength="1197.89" waitingTime="4.00" waitingCount="1" stopTime="0.00" timeLoss="14.36" rerouteNo="0" devices="tripinfo_0" vType="DEFAULT_VEHTYPE" speedFactor="0.99" vaporized=""/>
    <tripinfo id="2" depart="24.00" departLane="left3A3_0" departPos="5.10" departSpeed="0.00" departDelay="0.00" arrival="138.00" arrivalLane="C3top2_0" arrivalPos="286.40" arrivalSpeed="13.58" duration="114.00" routeLength="1197.89" waitingTime="14.00" waitingCount="2" stopTime="0.00" timeLoss="32.40" rerouteNo="0" devices="tripinfo_2" vType="DEFAULT_VEHTYPE" speedFactor="1.07" vaporized=""/>
    <tripinfo id="3" depart="32.00" departLane="bottom3D0_0" departPos="5.10" departSpeed="0.00" departDelay="0.00" arrival="140.00" arrivalLane="C0bottom2_0" arrivalPos="286.40" arrivalSpeed="12.56" duration="108.00" routeLength="894.86" waitingTime="24.00" waitingCount="2" stopTime="0.00" timeLoss="39.41" rerouteNo="0" devices="tripinfo_3" vType="DEFAULT_VEHTYPE" speedFactor="0.96" vaporized=""/>
    <tripinfo id="1" depart="24.00" departLane="right0D0_0" departPos="5.10" departSpeed="0.00" departDelay="0.00" arrival="147.00" arrivalLane="B0bottom1_0" arrivalPos="286.40" arrivalSpeed="15.31" duration="123.00" routeLength="1197.89" waitingTime="27.00" waitingCount="2" stopTime="0.00" timeLoss="45.05" rerouteNo="0" devices="tripinfo_1" vType="DEFAULT_VEHTYPE" speedFactor="1.11" vaporized=""/>
    <tripinfo id="7" depart="59.00" departLane="top2C3_0" departPos="5.10" departSpeed="0.00" departDelay="0.00" arrival="173.00" arrivalLane="D3right3_0" arrivalPos="286.40" arrivalSpeed="10.37" duration="114.00" routeLength="895.01" waitingTime="21.00" waitingCount="2" stopTime="0.00" timeLoss="36.60" rerouteNo="0" devices="tripinfo_7" vType="DEFAULT_VEHTYPE" speedFactor="0.84" vaporized=""/>
    <tripinfo id="13" depart="93.00" departLane="right1D1_0" departPos="5.10" departSpeed="0.00" departDelay="0.00" arrival="187.00" arrivalLane="D3top3_0" arrivalPos="286.40" arrivalSpeed="13.84" duration="94.00" routeLength="1179.77" waitingTime="1.00" waitingCount="1" stopTime="0.00" timeLoss="14.09" rerouteNo="0" devices="tripinfo_13" vType="DEFAULT_VEHTYPE" speedFactor="1.08" vaporized=""/>
    <tripinfo id="10" depart="65.00" departLane="bottom0A0_0" departPos="5.10" departSpeed="0.00" departDelay="0.00" arrival="190.00" arrivalLane="A3top0_0" arrivalPos="286.40" arrivalSpeed="14.26" duration="125.00" routeLength="1495.58" waitingTime="12.00" waitingCount="1" stopTime="0.00" timeLoss="24.88" rerouteNo="0" devices="tripinfo_10" vType="DEFAULT_VEHTYPE" speedFactor="1.08" vaporized=""/>
    <tripinfo id="17" depart="119.00" departLane="right3D3_0" departPos="5.10" departSpeed="0.00" departDelay="0.00" arrival="197.00" arrivalLane="D2right2_0" arrivalPos="286.40" arrivalSpeed="15.29" duration="78.00" routeLength="894.86" waitingTime="8.00" waitingCount="1" stopTime="0.00" timeLoss="19.40" rerouteNo="0" devices="tripinfo_17" vType="DEFAULT_VEHTYPE" speedFactor="1.12" vaporized=""/>
    <tripinfo id="4" depart="43.00" departLane="top2C3_0" departPos="5.10" departSpeed="0.00" departDelay="0.00" arrival="200.00" arrivalLane="A2left2_0" arrivalPos="286.40" arrivalSpeed="12.34" duration="157.00" routeLength="1479.94" waitingTime="23.00" waitingCount="3" stopTime="0.00" timeLoss="45.65" rerouteNo="0" devices="tripinfo_4" vType="DEFAULT_VEHTYPE" speedFactor="0.96" vaporized=""/>
    <tripinfo id="11" depart="67.00" departLane="top0A3_0" departPos="5.10" departSpeed="0.00" departDelay="0.00" arrival="239.00" arrivalLane="D3right3_0" arrivalPos="286.40" arrivalSpeed="13.08" duration="172.00" routeLength="1495.35" waitingTime="33.00" waitingCount="4" stopTime="0.00" timeLoss="63.27" rerouteNo="0" devices="tripinfo_11" vType="DEFAULT_VEHTYPE" speedFactor="1.00" vaporized=""/>
    <tripinfo id="18" depart="121.00" departLane="bottom0A0_0" departPos="5.10" departSpeed="0.00" departDelay="0.00" arrival="241.00" arrivalLane="A2left2_0" arrivalPos="286.40" arrivalSpeed="13.57" duration="120.00" routeLength="1197.89" waitingTime="17.00" waitingCount="2" stopTime="0.00" timeLoss="36.69" rerouteNo="0" devices="tripinfo_18" vType="DEFAULT_VEHTYPE" speedFactor="1.04" vaporized=""/>
    <tripinfo id="19" depart="131.00" departLane="bottom0A0_0" departPos="5.10" departSpeed="0.00" departDelay="0.00" arrival="243.00" arrivalLane="A2left2_0" arrivalPos="286.40" arrivalSpeed="13.77" duration="112.00" routeLength="1197.89" waitingTime="12.00" waitingCount="1" stopTime="0.00" timeLoss="28.54" rerouteNo="0" devices="tripinfo_19" vType="DEFAULT_VEHTYPE" speedFactor="1.04" vaporized=""/>
    <tripinfo id="8" depart="64.00" departLane="left1A1_0" departPos="5.10" departSpeed="0.00" departDelay="0.00" arrival="251.00" arrivalLane="D2right2_0" arrivalPos="286.40" arrivalSpeed="13.02" duration="187.00" routeLength="1782.59" waitingTime="21.00" waitingCount="3" stopTime="0.00" timeLoss="49.96" rerouteNo="0" devices="tripinfo_8" vType="DEFAULT_VEHTYPE" speedFactor="0.95" vaporized=""/>
    <tripinfo id="9" depart="64.00" departLane="left2A2_0" departPos="5.10" departSpeed="0.00" departDelay="0.00" arrival="255.00" arrivalLane="D0bottom3_0" arrivalPos="286.40" arrivalSpeed="15.79" duration="191.00" routeLength="2080.28" waitingTime="34.00" waitingCount="3" stopTime="0.00" timeLoss="62.33" rerouteNo="0" devices="tripinfo_9" vType="DEFAULT_VEHTYPE" speedFactor="1.17" vaporized=""/>
    <tripinfo id="12" depart="81.00" departLane="right2D2_0" departPos="5.10" departSpeed="0.00" departDelay="0.00" arrival="256.00" arrivalLane="A3top0_0" arrivalPos="286.40" arrivalSpeed="14.10" duration="175.00" routeLength="1780.11" waitingTime="23.00" waitingCount="4" stopTime="0.00" timeLoss="54.32" rerouteNo="0" devices="tripinfo_12" vType="DEFAULT_VEHTYPE" speedFactor="1.07" vaporized=""/>
    <tripinfo id="16" depart="110.00" departLane="top0A3_0" departPos="5.10" departSpeed="0.00" departDelay="0.00" arrival="257.00" arrivalLane="A3top0_0" arrivalPos="286.40" arrivalSpeed="16.15" duration="147.00" routeLength="1745.91" waitingTime="9.00" waitingCount="3" stopTime="0.00" timeLoss="40.31" rerouteNo="0" devices="tripinfo_16" vType="DEFAULT_VEHTYPE" speedFactor="1.20" vaporized=""/>
    <tripinfo id="22" depart="157.00" departLane="right3D3_0" departPos="5.10" departSpeed="0.00" departDelay="0.00" arrival="257.00" arrivalLane="D2right2_0" arrivalPos="286.40" arrivalSpeed="15.28" duration="100.00" routeLength="894.86" waitingTime="23.00" waitingCount="2" stopTime="0.00" timeLoss="43.07" rerouteNo="0" devices="tripinfo_22" vType="DEFAULT_VEHTYPE" speedFactor="1.17" vaporized=""/>
    <tripinfo id="15" depart="108.00" departLane="left1A1_0" departPos="5.10" departSpeed="0.00" departDelay="0.00" arrival="264.00" arrivalLane="A3left3_0" arrivalPos="286.40" arrivalSpeed="11.15" duration="156.00" routeLength="1197.66" waitingTime="33.00" waitingCount="2" stopTime="0.00" timeLoss="49.50" rerouteNo="0" devices="tripinfo_15" vType="DEFAULT_VEHTYPE" speedFactor="0.82" vaporized=""/>
    <tripinfo id="20" depart="136.00" departLane="right0D0_0" departPos="5.10" departSpeed="0.00" departDelay="0.00" arrival="268.00" arrivalLane="D3top3_0" arrivalPos="286.40" arrivalSpeed="12.56" duration="132.00" routeLength="1479.94" waitingTime="1.00" waitingCount="1" stopTime="0.00" timeLoss="22.66" rerouteNo="0" devices="tripinfo_20" vType="DEFAULT_VEHTYPE" speedFactor="0.98" vaporized=""/>
    <tripinfo id="5" depart="54.00" departLane="right3D3_0" departPos="5.10" departSpeed="0.00" departDelay="0.00" arrival="277.00" arrivalLane="A2left2_0" arrivalPos="286.40" arrivalSpeed="15.27" duration="223.00" routeLength="1782.59" waitingTime="67.00" waitingCount="5" stopTime="0.00" timeLoss="105.46" rerouteNo="0" devices="tripinfo_5" vType="DEFAULT_VEHTYPE" speedFactor="1.10" vaporized=""/>
    <tripinfo id="31" depart="208.00" departLane="top2C3_0" departPos="5.10" departSpeed="0.00" departDelay="0.00" arrival="284.00" arrivalLane="B3top1_0" arrivalPos="286.40" arrivalSpeed="12.58" duration="76.00" routeLength="858.56" waitingTime="0.00" waitingCount="0" stopTime="0.00" timeLoss="9.76" rerouteNo="0" devices="tripinfo_31" vType="DEFAULT_VEHTYPE" speedFactor="0.95" vaporized=""/>
    <tripinfo id="29" depart="194.00" departLane="bottom2C0_0" departPos="5.10" departSpeed="0.00" departDelay="0.00" arrival="289.00" arrivalLane="B0bottom1_0" arrivalPos="286.40" arrivalSpeed="13.08" duration="95.00" routeLength="894.86" waitingTime="12.00" waitingCount="1" stopTime="0.00" timeLoss="29.68" rerouteNo="0" devices="tripinfo_29" vType="DEFAULT_VEHTYPE" speedFactor="1.01" vaporized=""/>
    <tripinfo id="6" depart="57.00" departLane="top0A3_0" departPos="5.10" departSpeed="0.00" departDelay="0.00" arrival="303.00" arrivalLane="D0bottom3_0" arrivalPos="286.40" arrivalSpeed="13.36" duration="246.00" routeLength="2380.22" waitingTime="26.00" waitingCount="5" stopTime="0.00" timeLoss="67.78" rerouteNo="0" devices="tripinfo_6" vType="DEFAULT_VEHTYPE" speedFactor="0.97" vaporized=""/>
    <tripinfo id="14" depart="97.00" departLane="top3D3_0" departPos="5.10" departSpeed="0.00" departDelay="0.00" arrival="313.00" arrivalLane="A1left1_0" arrivalPos="286.40" arrivalSpeed="12.81" duration="216.00" routeLength="2080.28" waitingTime="20.00" waitingCount="4" stopTime="0.00" timeLoss="59.70" rerouteNo="0" devices="tripinfo_14" vType="DEFAULT_VEHTYPE" speedFactor="0.97" vaporized=""/>
    <tripinfo id="24" depart="164.00" departLane="top3D3_0" departPos="5.10" departSpeed="0.00" departDelay="0.00" arrival="316.00" arrivalLane="D3top3_0" arrivalPos="286.40" arrivalSpeed="15.24" duration="152.00" routeLength="1748.75" waitingTime="14.00" waitingCount="3" stopTime="0.00" timeLoss="42.90" rerouteNo="0" devices="tripinfo_24" vType="DEFAULT_VEHTYPE" speedFactor="1.17" vaporized=""/>
    <tripinfo id="27" depart="191.00" departLane="bottom1B0_0" departPos="5.10" departSpeed="0.00" departDelay="0.00" arrival="328.00" arrivalLane="D1right1_0" arrivalPos="286.40" arrivalSpeed="14.30" duration="137.00" routeLength="1479.94" waitingTime="18.00" waitingCount="2" stopTime="0.00" timeLoss="37.99" rerouteNo="0" devices="tripinfo_27" vType="DEFAULT_VEHTYPE" speedFactor="1.09" vaporized=""/>
    <tripinfo id="39" depart="262.00" departLane="top2C3_0" departPos="5.10" departSpeed="0.00" departDelay="0.00" arrival="355.00" arrivalLane="A3top0_0" arrivalPos="286.40" arrivalSpeed="14.35" duration="93.00" routeLength="1161.43" waitingTime="1.00" waitingCount="1" stopTime="0.00" timeLoss="12.87" rerouteNo="0" devices="tripinfo_39" vType="DEFAULT_VEHTYPE" speedFactor="1.06" vaporized=""/>
    <tripinfo id="36" depart="252.00" departLane="top1B3_0" departPos="5.10" departSpeed="0.00" departDelay="0.00" arrival="367.00" arrivalLane="A2left2_0" arrivalPos="286.40" arrivalSpeed="13.48" duration="115.00" routeLength="1179.77" waitingTime="13.00" waitingCount="1" stopTime="0.00" timeLoss="29.17" rerouteNo="0" devices="tripinfo_36" vType="DEFAULT_VEHTYPE" speedFactor="1.00" vaporized=""/>
    <tripinfo id="42" depart="268.00" departLane="top0A3_0" departPos="5.10" departSpeed="0.00" departDelay="0.00" arrival="368.00" arrivalLane="B3top1_0" arrivalPos="286.40" arrivalSpeed="13.64" duration="100.00" routeLength="894.86" waitingTime="20.00" waitingCount="2" stopTime="0.00" timeLoss="37.96" rerouteNo="0" devices="tripinfo_42" vType="DEFAULT_VEHTYPE" speedFactor="1.06" vaporized=""/>
    <tripinfo id="26" depart="186.00" departLane="bottom2C0_0" departPos="5.10" departSpeed="0.00" departDelay="0.00" arrival="369.00" arrivalLane="A3left3_0" arrivalPos="286.40" arrivalSpeed="14.75" duration="183.00" routeLength="2095.69" waitingTime="21.00" waitingCount="2" stopTime="0.00" timeLoss="42.55" rerouteNo="0" devices="tripinfo_26" vType="DEFAULT_VEHTYPE" speedFactor="1.08" vaporized=""/>
    <tripinfo id="30" depart="205.00" departLane="bottom1B0_0" departPos="5.10" departSpeed="0.00" departDelay="0.00" arrival="369.00" arrivalLane="B0bottom1_0" arrivalPos="286.40" arrivalSpeed="13.81" duration="164.00" routeLength="1748.75" waitingTime="10.00" waitingCount="2" stopTime="0.00" timeLoss="39.36" rerouteNo="0" devices="tripinfo_30" vType="DEFAULT_VEHTYPE" speedFactor="1.03" vaporized=""/>
    <tripinfo id="28" depart="192.00" departLane="top3D3_0" departPos="5.10" departSpeed="0.00" departDelay="0.00" arrival="370.00" arrivalLane="D0right0_0" arrivalPos="286.40" arrivalSpeed="12.66" duration="178.00" routeLength="1498.06" waitingTime="35.00" waitingCount="3" stopTime="0.00" timeLoss="63.05" rerouteNo="0" devices="tripinfo_28" vType="DEFAULT_VEHTYPE" speedFactor="0.94" vaporized=""/>
    <tripinfo id="46" depart="289.00" departLane="right1D1_0" departPos="5.10" departSpeed="0.00" departDelay="0.00" arrival="372.00" arrivalLane="D0bottom3_0" arrivalPos="286.40" arrivalSpeed="12.98" duration="83.00" routeLength="895.01" waitingTime="6.00" waitingCount="1" stopTime="0.00" timeLoss="17.96" rerouteNo="0" devices="tripinfo_46" vType="DEFAULT_VEHTYPE" speedFactor="1.00" vaporized=""/>
    <tripinfo id="25" depart="177.00" departLane="right3D3_0" departPos="5.10" departSpeed="0.00" departDelay="0.00" arrival="375.00" arrivalLane="A2left2_0" arrivalPos="286.40" arrivalSpeed="11.71" duration="198.00" routeLength="1782.59" waitingTime="28.00" waitingCount="4" stopTime="0.00" timeLoss="59.64" rerouteNo="0" devices="tripinfo_25" vType="DEFAULT_VEHTYPE" speedFactor="0.94" vaporized=""/>
    <tripinfo id="32" depart="219.00" departLane="top3D3_0" departPos="5.10" departSpeed="0.00" departDelay="0.00" arrival="382.00" arrivalLane="D0bottom3_0" arrivalPos="286.40" arrivalSpeed="13.05" duration="163.00" routeLength="1495.58" waitingTime="33.00" waitingCount="2" stopTime="0.00" timeLoss="53.40" rerouteNo="0" devices="tripinfo_32" vType="DEFAULT_VEHTYPE" speedFactor="0.98" vaporized=""/>
    <tripinfo id="50" depart="309.00" departLane="top1B3_0" departPos="5.10" departSpeed="0.00" departDelay="0.00" arrival="387.00" arrivalLane="A3top0_0" arrivalPos="286.40" arrivalSpeed="13.58" duration="78.00" routeLength="858.56" waitingTime="2.00" waitingCount="2" stopTime="0.00" timeLoss="18.77" rerouteNo="0" devices="tripinfo_50" vType="DEFAULT_VEHTYPE" speedFactor="1.06" vaporized=""/>
    <tripinfo id="33" depart="231.00" departLane="right0D0_0" departPos="5.10" departSpeed="0.00" departDelay="0.00" arrival="407.00" arrivalLane="C3top2_0" arrivalPos="286.40" arrivalSpeed="12.52" duration="176.00" routeLength="1780.11" waitingTime="21.00" waitingCount="2" stopTime="0.00" timeLoss="42.14" rerouteNo="0" devices="tripinfo_33" vType="DEFAULT_VEHTYPE" speedFactor="0.97" vaporized=""/>
    <tripinfo id="52" depart="321.00" departLane="bottom2C0_0" departPos="5.10" departSpeed="0.00" departDelay="0.00" arrival="414.00" arrivalLane="D0bottom3_0" arrivalPos="286.40" arrivalSpeed="10.96" duration="93.00" routeLength="858.56" waitingTime="1.00" waitingCount="1" stopTime="0.00" timeLoss="14.21" rerouteNo="0" devices="tripinfo_52" vType="DEFAULT_VEHTYPE" speedFactor="0.80" vaporized=""/>
    <tripinfo id="23" depart="158.00" departLane="top2C3_0" departPos="5.10" departSpeed="0.00" departDelay="0.00" arrival="416.00" arrivalLane="A0bottom0_0" arrivalPos="286.40" arrivalSpeed="9.63" duration="258.00" routeLength="2082.76" waitingTime="32.00" waitingCount="4" stopTime="0.00" timeLoss="62.81" rerouteNo="0" devices="tripinfo_23" vType="DEFAULT_VEHTYPE" speedFactor="0.77" vaporized=""/>
    <tripinfo id="49" depart="308.00" departLane="bottom1B0_0" departPos="5.10" departSpeed="0.00" departDelay="0.00" arrival="416.00" arrivalLane="C0bottom2_0" arrivalPos="286.40" arrivalSpeed="9.52" duration="108.00" routeLength="858.56" waitingTime="2.00" waitingCount="2" stopTime="0.00" timeLoss="21.79" rerouteNo="0" devices="tripinfo_49" vType="DEFAULT_VEHTYPE" speedFactor="0.73" vaporized=""/>
    <tripinfo id="35" depart="248.00" departLane="left0A0_0" departPos="5.10" departSpeed="0.00" departDelay="0.00" arrival="417.00" arrivalLane="A3top0_0" arrivalPos="286.40" arrivalSpeed="14.54" duration="169.00" routeLength="1495.35" waitingTime="47.00" waitingCount="3" stopTime="0.00" timeLoss="73.14" rerouteNo="0" devices="tripinfo_35" vType="DEFAULT_VEHTYPE" speedFactor="1.14" vaporized=""/>
    <tripinfo id="38" depart="261.00" departLane="left3A3_0" departPos="5.10" departSpeed="0.00" departDelay="0.00" arrival="421.00" arrivalLane="A0left0_0" arrivalPos="286.40" arrivalSpeed="14.83" duration="160.00" routeLength="1461.60" waitingTime="35.00" waitingCount="3" stopTime="0.00" timeLoss="62.52" rerouteNo="0" devices="tripinfo_38" vType="DEFAULT_VEHTYPE" speedFactor="1.09" vaporized=""/>
    <tripinfo id="47" depart="294.00" departLane="left2A2_0" departPos="5.10" departSpeed="0.00" departDelay="0.00" arrival="421.00" arrivalLane="A0bottom0_0" arrivalPos="286.40" arrivalSpeed="14.12" duration="127.00" routeLength="1179.77" waitingTime="24.00" waitingCount="2" stopTime="0.00" timeLoss="43.40" rerouteNo="0" devices="tripinfo_47" vType="DEFAULT_VEHTYPE" speedFactor="1.03" vaporized=""/>
    <tripinfo id="21" depart="152.00" departLane="right0D0_0" departPos="5.10" departSpeed="0.00" departDelay="0.00" arrival="422.00" arrivalLane="A3top0_0" arrivalPos="286.40" arrivalSpeed="12.48" duration="270.00" routeLength="2380.45" waitingTime="47.00" waitingCount="6" stopTime="0.00" timeLoss="91.81" rerouteNo="0" devices="tripinfo_21" vType="DEFAULT_VEHTYPE" speedFactor="0.97" vaporized=""/>
    <tripinfo id="41" depart="264.00" departLane="left0A0_0" departPos="5.10" departSpeed="0.00" departDelay="0.00" arrival="423.00" arrivalLane="A3top0_1" arrivalPos="286.40" arrivalSpeed="13.34" duration="159.00" routeLength="1495.35" waitingTime="22.00" waitingCount="2" stopTime="0.00" timeLoss="50.61" rerouteNo="0" devices="tripinfo_41" vType="DEFAULT_VEHTYPE" speedFactor="1.00" vaporized=""/>
    <tripinfo id="34" depart="240.00" departLane="top0A3_0" departPos="5.10" departSpeed="0.00" departDelay="0.00" arrival="435.00" arrivalLane="C0bottom2_0" arrivalPos="286.40" arrivalSpeed="14.81" duration="195.00" routeLength="2080.05" waitingTime="32.00" waitingCount="3" stopTime="0.00" timeLoss="60.31" rerouteNo="0" devices="tripinfo_34" vType="DEFAULT_VEHTYPE" speedFactor="1.13" vaporized=""/>
    <tripinfo id="67" depart="360.00" departLane="left3A3_0" departPos="5.10" departSpeed="0.00" departDelay="0.00" arrival="441.00" arrivalLane="A2left2_0" arrivalPos="286.40" arrivalSpeed="12.99" duration="81.00" routeLength="858.56" waitingTime="1.00" waitingCount="1" stopTime="0.00" timeLoss="14.49" rerouteNo="0" devices="tripinfo_67" vType="DEFAULT_VEHTYPE" speedFactor="0.96" vaporized=""/>
    <tripinfo id="51" depart="318.00" departLane="left0A0_0" departPos="5.10" departSpeed="0.00" departDelay="0.00" arrival="447.00" arrivalLane="C0bottom2_0" arrivalPos="286.40" arrivalSpeed="12.86" duration="129.00" routeLength="1177.07" waitingTime="24.00" waitingCount="2" stopTime="0.00" timeLoss="42.20" rerouteNo="0" devices="tripinfo_51" vType="DEFAULT_VEHTYPE" speedFactor="0.99" vaporized=""/>
    <tripinfo id="53" depart="330.00" departLane="right1D1_0" departPos="5.10" departSpeed="0.00" departDelay="0.00" arrival="452.00" arrivalLane="D3top3_0" arrivalPos="286.40" arrivalSpeed="11.70" duration="122.00" routeLength="1179.77" waitingTime="6.00" waitingCount="1" stopTime="0.00" timeLoss="23.91" rerouteNo="0" devices="tripinfo_53" vType="DEFAULT_VEHTYPE" speedFactor="0.88" vaporized=""/>
    <tripinfo id="58" depart="347.00" departLane="left3A3_0" departPos="5.10" departSpeed="0.00" departDelay="0.00" arrival="454.00" arrivalLane="A1left1_0" arrivalPos="286.40" arrivalSpeed="13.80" duration="107.00" routeLength="1161.43" waitingTime="5.00" waitingCount="2" stopTime="0.00" timeLoss="26.78" rerouteNo="0" devices="tripinfo_58" vType="DEFAULT_VEHTYPE" speedFactor="1.07" vaporized=""/>
    <tripinfo id="37" depart="253.00" departLane="top2C3_0" departPos="5.10" departSpeed="0.00" departDelay="0.00" arrival="459.00" arrivalLane="A0left0_0" arrivalPos="286.40" arrivalSpeed="13.22" duration="206.00" routeLength="2080.28" waitingTime="27.00" waitingCount="3" stopTime="0.00" timeLoss="55.79" rerouteNo="0" devices="tripinfo_37" vType="DEFAULT_VEHTYPE" speedFactor="1.00" vaporized=""/>
    <tripinfo id="40" depart="263.00" departLane="top3D3_0" departPos="5.10" departSpeed="0.00" departDelay="0.00" arrival="463.00" arrivalLane="D3top3_0" arrivalPos="286.40" arrivalSpeed="11.68" duration="200.00" routeLength="1748.75" waitingTime="20.00" waitingCount="4" stopTime="0.00" timeLoss="49.50" rerouteNo="0" devices="tripinfo_40" vType="DEFAULT_VEHTYPE" speedFactor="0.85" vaporized=""/>
    <tripinfo id="45" depart="289.00" departLane="bottom2C0_0" departPos="5.10" departSpeed="0.00" departDelay="0.00" arrival="465.00" arrivalLane="B3top1_0" arrivalPos="286.40" arrivalSpeed="16.23" duration="176.00" routeLength="1782.59" waitingTime="33.00" waitingCount="4" stopTime="0.00" timeLoss="67.24" rerouteNo="0" devices="tripinfo_45" vType="DEFAULT_VEHTYPE" speedFactor="1.19" vaporized=""/>
    <tripinfo id="68" depart="369.00" departLane="bottom2C0_0" departPos="5.10" departSpeed="0.00" departDelay="0.00" arrival="469.00" arrivalLane="B0bottom1_0" arrivalPos="286.40" arrivalSpeed="13.80" duration="100.00" routeLength="894.86" waitingTime="18.00" waitingCount="2" stopTime="0.00" timeLoss="35.11" rerouteNo="0" devices="tripinfo_68" vType="DEFAULT_VEHTYPE" speedFactor="1.01" vaporized=""/>
    <tripinfo id="48" depart="306.00" departLane="right0D0_0" departPos="5.10" departSpeed="0.00" departDelay="0.00" arrival="478.00" arrivalLane="D3top3_0" arrivalPos="286.40" arrivalSpeed="14.87" duration="172.00" routeLength="1479.94" waitingTime="41.00" waitingCount="4" stopTime="0.00" timeLoss="72.76" rerouteNo="0" devices="tripinfo_48" vType="DEFAULT_VEHTYPE" speedFactor="1.09" vaporized=""/>
    <tripinfo id="59" depart="350.00" departLane="left1A1_0" departPos="5.10" departSpeed="0.00" departDelay="0.00" arrival="481.00" arrivalLane="A3left3_0" arrivalPos="286.40" arrivalSpeed="11.88" duration="131.00" routeLength="1197.66" waitingTime="13.00" waitingCount="2" stopTime="0.00" timeLoss="34.85" rerouteNo="0" devices="tripinfo_59" vType="DEFAULT_VEHTYPE" speedFactor="0.91" vaporized=""/>
    <tripinfo id="43" depart="278.00" departLane="right2D2_0" departPos="5.10" departSpeed="0.00" departDelay="0.00" arrival="482.00" arrivalLane="B0bottom1_0" arrivalPos="286.40" arrivalSpeed="11.21" duration="204.00" routeLength="1795.52" waitingTime="24.00" waitingCount="3" stopTime="0.00" timeLoss="51.35" rerouteNo="0" devices="tripinfo_43" vType="DEFAULT_VEHTYPE" speedFactor="0.85" vaporized=""/>
    <tripinfo id="65" depart="357.00" departLane="bottom0A0_0" departPos="5.10" departSpeed="0.00" departDelay="0.00" arrival="489.00" arrivalLane="A2left2_0" arrivalPos="286.40" arrivalSpeed="14.37" duration="132.00" routeLength="1197.89" waitingTime="25.00" waitingCount="3" stopTime="0.00" timeLoss="47.84" rerouteNo="0" devices="tripinfo_65" vType="DEFAULT_VEHTYPE" speedFactor="1.04" vaporized=""/>
    <tripinfo id="70" depart="372.00" departLane="right1D1_0" departPos="5.10" departSpeed="0.00" departDelay="0.00" arrival="490.00" arrivalLane="D0right0_0" arrivalPos="286.40" arrivalSpeed="13.75" duration="118.00" routeLength="894.86" waitingTime="34.00" waitingCount="2" stopTime="0.00" timeLoss="51.97" rerouteNo="0" devices="tripinfo_70" vType="DEFAULT_VEHTYPE" speedFactor="0.99" vaporized=""/>
    <tripinfo id="71" depart="375.00" departLane="right1D1_0" departPos="5.10" departSpeed="0.00" departDelay="3.00" arrival="492.00" arrivalLane="D0right0_0" arrivalPos="286.40" arrivalSpeed="13.92" duration="117.00" routeLength="894.86" waitingTime="34.00" waitingCount="2" stopTime="0.00" timeLoss="52.23" rerouteNo="0" devices="tripinfo_71" vType="DEFAULT_VEHTYPE" speedFactor="1.01" vaporized=""/>
    <tripinfo id="57" depart="343.00" departLane="top3D3_0" departPos="5.10" departSpeed="0.00" departDelay="0.00" arrival="498.00" arrivalLane="A2left2_0" arrivalPos="286.40" arrivalSpeed="13.31" duration="155.00" routeLength="1780.11" waitingTime="6.00" waitingCount="2" stopTime="0.00" timeLoss="31.68" rerouteNo="0" devices="tripinfo_57" vType="DEFAULT_VEHTYPE" speedFactor="1.05" vaporized=""/>
    <tripinfo id="54" depart="331.00" departLane="top2C3_0" departPos="5.10" departSpeed="0.00" departDelay="0.00" arrival="500.00" arrivalLane="B0bottom1_0" arrivalPos="286.40" arrivalSpeed="12.68" duration="169.00" routeLength="1782.72" waitingTime="11.00" waitingCount="3" stopTime="0.00" timeLoss="35.74" rerouteNo="0" devices="tripinfo_54" vType="DEFAULT_VEHTYPE" speedFactor="0.98" vaporized=""/>
    <tripinfo id="60" depart="351.00" departLane="bottom3D0_0" departPos="5.10" departSpeed="0.00" departDelay="0.00" arrival="502.00" arrivalLane="D0bottom3_0" arrivalPos="286.40" arrivalSpeed="14.43" duration="151.00" routeLength="1745.91" waitingTime="7.00" waitingCount="3" stopTime="0.00" timeLoss="35.78" rerouteNo="0" devices="tripinfo_60" vType="DEFAULT_VEHTYPE" speedFactor="1.11" vaporized=""/>
    <tripinfo id="78" depart="407.00" departLane="right3D3_0" departPos="5.10" departSpeed="0.00" departDelay="0.00" arrival="511.00" arrivalLane="D2right2_0" arrivalPos="286.40" arrivalSpeed="13.10" duration="104.00" routeLength="894.86" waitingTime="20.00" waitingCount="2" stopTime="0.00" timeLoss="34.39" rerouteNo="0" devices="tripinfo_78" vType="DEFAULT_VEHTYPE" speedFactor="0.95" vaporized=""/>
    <tripinfo id="61" depart="353.00" departLane="left1A1_0" departPos="5.10" departSpeed="0.00" departDelay="2.00" arrival="514.00" arrivalLane="D0bottom3_0" arrivalPos="286.40" arrivalSpeed="13.88" duration="161.00" routeLength="1780.11" waitingTime="17.00" waitingCount="3" stopTime="0.00" timeLoss="41.86" rerouteNo="0" devices="tripinfo_61" vType="DEFAULT_VEHTYPE" speedFactor="1.08" vaporized=""/>
    <tripinfo id="44" depart="279.00" departLane="left0A0_0" departPos="5.10" departSpeed="0.00" departDelay="0.00" arrival="526.00" arrivalLane="D3top3_0" arrivalPos="286.40" arrivalSpeed="15.40" duration="247.00" routeLength="2395.86" waitingTime="53.00" waitingCount="5" stopTime="0.00" timeLoss="102.20" rerouteNo="0" devices="tripinfo_44" vType="DEFAULT_VEHTYPE" speedFactor="1.20" vaporized=""/>
    <tripinfo id="64" depart="356.00" departLane="left3A3_0" departPos="5.10" departSpeed="0.00" departDelay="0.00" arrival="530.00" arrivalLane="D2right2_0" arrivalPos="286.40" arrivalSpeed="12.44" duration="174.00" routeLength="1782.72" waitingTime="16.00" waitingCount="2" stopTime="0.00" timeLoss="39.82" rerouteNo="0" devices="tripinfo_64" vType="DEFAULT_VEHTYPE" speedFactor="0.97" vaporized=""/>
    <tripinfo id="66" depart="360.00" departLane="left1A1_0" departPos="5.10" departSpeed="0.00" departDelay="0.00" arrival="537.00" arrivalLane="C3top2_0" arrivalPos="286.40" arrivalSpeed="14.76" duration="177.00" routeLength="1795.52" waitingTime="26.00" waitingCount="3" stopTime="0.00" timeLoss="59.86" rerouteNo="0" devices="tripinfo_66" vType="DEFAULT_VEHTYPE" speedFactor="1.11" vaporized=""/>
    <tripinfo id="72" depart="373.00" departLane="left0A0_0" departPos="5.10" departSpeed="0.00" departDelay="0.00" arrival="537.00" arrivalLane="A0left0_0" arrivalPos="286.40" arrivalSpeed="14.08" duration="164.00" routeLength="1745.91" waitingTime="14.00" waitingCount="2" stopTime="0.00" timeLoss="39.40" rerouteNo="0" devices="tripinfo_72" vType="DEFAULT_VEHTYPE" speedFactor="1.03" vaporized=""/>
    <tripinfo id="73" depart="377.00" departLane="bottom1B0_0" departPos="5.10" departSpeed="0.00" departDelay="0.00" arrival="537.00" arrivalLane="B0bottom1_0" arrivalPos="286.40" arrivalSpeed="14.44" duration="160.00" routeLength="1748.75" waitingTime="18.00" waitingCount="1" stopTime="0.00" timeLoss="43.88" rerouteNo="0" devices="tripinfo_73" vType="DEFAULT_VEHTYPE" speedFactor="1.11" vaporized=""/>
    <tripinfo id="56" depart="342.00" departLane="left3A3_0" departPos="5.10" departSpeed="0.00" departDelay="0.00" arrival="542.00" arrivalLane="D3top3_0" arrivalPos="286.40" arrivalSpeed="13.04" duration="200.00" routeLength="1498.06" waitingTime="69.00" waitingCount="3" stopTime="0.00" timeLoss="93.45" rerouteNo="0" devices="tripinfo_56" vType="DEFAULT_VEHTYPE" speedFactor="1.02" vaporized=""/>