<?xml version="1.0" encoding="UTF-8"?>

<!-- generated on 12/19/21 19:11:24 by Eclipse SUMO sumo Version 1.7.0
<configuration xmlns:xsi="http://www.w3.org/2001/XMLSchema-instance" xsi:noNamespaceSchemaLocation="http://sumo.dlr.de/xsd/sumoConfiguration.xsd">

    <input>
        <net-file value="C:\Users\longs\Desktop\RESCO-main\environments\grid4x4\grid4x4.net.xml"/>
        <route-files value="C:\Users\longs\Desktop\RESCO-main\environments\grid4x4\grid4x4_91.rou.xml"/>
    </input>

    <output>
        <tripinfo-output value="C:\Users\longs\Desktop\RESCO-main\logs\IDQN-tr1-grid4x4-0-drqlong-delaydiff_pressure09\tripinfo_91.xml"/>
        <tripinfo-output.write-unfinished value="true"/>
    </output>

    <processing>
        <time-to-teleport value="-1"/>
    </processing>

    <report>
        <no-warnings value="true"/>
        <no-step-log value="true"/>
    </report>

    <traci_server>
        <remote-port value="60743"/>
    </traci_server>

    <random_number>
        <random value="true"/>
    </random_number>

</configuration>
-->

<tripinfos xmlns:xsi="http://www.w3.org/2001/XMLSchema-instance" xsi:noNamespaceSchemaLocation="http://sumo.dlr.de/xsd/tripinfo_file.xsd">
    <tripinfo id="0" depart="3.00" departLane="right2D2_0" departPos="5.10" departSpeed="0.00" departDelay="0.00" arrival="77.00" arrivalLane="D3right3_0" arrivalPos="286.40" arrivalSpeed="13.97" duration="74.00" routeLength="858.56" waitingTime="1.00" waitingCount="1" stopTime="0.00" timeLoss="15.08" rerouteNo="0" devices="tripinfo_0" vType="DEFAULT_VEHTYPE" speedFactor="1.08" vaporized=""/>
    <tripinfo id="4" depart="30.00" departLane="bottom1B0_0" departPos="5.10" departSpeed="0.00" departDelay="0.00" arrival="105.00" arrivalLane="C0bottom2_0" arrivalPos="286.40" arrivalSpeed="15.08" duration="75.00" routeLength="858.56" waitingTime="1.00" waitingCount="1" stopTime="0.00" timeLoss="17.20" rerouteNo="0" devices="tripinfo_4" vType="DEFAULT_VEHTYPE" speedFactor="1.11" vaporized=""/>
    <tripinfo id="1" depart="8.00" departLane="left1A1_0" departPos="5.10" departSpeed="0.00" departDelay="0.00" arrival="142.00" arrivalLane="A3top0_0" arrivalPos="286.40" arrivalSpeed="11.28" duration="134.00" routeLength="1195.18" waitingTime="17.00" waitingCount="2" stopTime="0.00" timeLoss="36.30" rerouteNo="0" devices="tripinfo_1" vType="DEFAULT_VEHTYPE" speedFactor="0.89" vaporized=""/>
    <tripinfo id="2" depart="9.00" departLane="top2C3_0" departPos="5.10" departSpeed="0.00" departDelay="0.00" arrival="151.00" arrivalLane="D2right2_0" arrivalPos="286.40" arrivalSpeed="11.84" duration="142.00" routeLength="1195.18" waitingTime="24.00" waitingCount="3" stopTime="0.00" timeLoss="47.20" rerouteNo="0" devices="tripinfo_2" vType="DEFAULT_VEHTYPE" speedFactor="0.91" vaporized=""/>
    <tripinfo id="8" depart="44.00" departLane="right0D0_0" departPos="5.10" departSpeed="0.00" departDelay="0.00" arrival="155.00" arrivalLane="B0bottom1_0" arrivalPos="286.40" arrivalSpeed="16.44" duration="111.00" routeLength="1197.89" waitingTime="19.00" waitingCount="2" stopTime="0.00" timeLoss="41.39" rerouteNo="0" devices="tripinfo_8" vType="DEFAULT_VEHTYPE" speedFactor="1.25" vaporized=""/>
    <tripinfo id="9" depart="47.00" departLane="right0D0_0" departPos="5.10" departSpeed="0.00" departDelay="1.00" arrival="160.00" arrivalLane="D2right2_0" arrivalPos="286.40" arrivalSpeed="12.06" duration="113.00" routeLength="1161.43" waitingTime="2.00" waitingCount="2" stopTime="0.00" timeLoss="20.95" rerouteNo="0" devices="tripinfo_9" vType="DEFAULT_VEHTYPE" speedFactor="0.93" vaporized=""/>
    <tripinfo id="5" depart="37.00" departLane="right2D2_0" departPos="5.10" departSpeed="0.00" departDelay="0.00" arrival="178.00" arrivalLane="A2left2_0" arrivalPos="286.40" arrivalSpeed="15.00" duration="141.00" routeLength="1495.58" waitingTime="17.00" waitingCount="2" stopTime="0.00" timeLoss="40.64" rerouteNo="0" devices="tripinfo_5" vType="DEFAULT_VEHTYPE" speedFactor="1.08" vaporized=""/>
    <tripinfo id="10" depart="53.00" departLane="left3A3_0" departPos="5.10" departSpeed="0.00" departDelay="0.00" arrival="178.00" arrivalLane="D3top3_0" arrivalPos="286.40" arrivalSpeed="14.43" duration="125.00" routeLength="1498.06" waitingTime="8.00" waitingCount="1" stopTime="0.00" timeLoss="22.50" rerouteNo="0" devices="tripinfo_10" vType="DEFAULT_VEHTYPE" speedFactor="1.06" vaporized=""/>
    <tripinfo id="7" depart="40.00" departLane="left3A3_0" departPos="5.10" departSpeed="0.00" departDelay="0.00" arrival="187.00" arrivalLane="D2right2_0" arrivalPos="286.40" arrivalSpeed="14.22" duration="147.00" routeLength="1782.72" waitingTime="8.00" waitingCount="2" stopTime="0.00" timeLoss="29.48" rerouteNo="0" devices="tripinfo_7" vType="DEFAULT_VEHTYPE" speedFactor="1.10" vaporized=""/>
    <tripinfo id="23" depart="135.00" departLane="right3D3_0" departPos="5.10" departSpeed="0.00" departDelay="0.00" arrival="187.00" arrivalLane="D3top3_0" arrivalPos="286.40" arrivalSpeed="13.60" duration="52.00" routeLength="576.73" waitingTime="0.00" waitingCount="0" stopTime="0.00" timeLoss="10.70" rerouteNo="0" devices="tripinfo_23" vType="DEFAULT_VEHTYPE" speedFactor="1.02" vaporized=""/>
    <tripinfo id="16" depart="81.00" departLane="left1A1_0" departPos="5.10" departSpeed="0.00" departDelay="0.00" arrival="191.00" arrivalLane="A2left2_0" arrivalPos="286.40" arrivalSpeed="12.39" duration="110.00" routeLength="894.86" waitingTime="24.00" waitingCount="2" stopTime="0.00" timeLoss="37.91" rerouteNo="0" devices="tripinfo_16" vType="DEFAULT_VEHTYPE" speedFactor="0.91" vaporized=""/>
    <tripinfo id="15" depart="72.00" departLane="right0D0_0" departPos="5.10" departSpeed="0.00" departDelay="0.00" arrival="196.00" arrivalLane="D3top3_0" arrivalPos="286.40" arrivalSpeed="14.96" duration="124.00" routeLength="1479.94" waitingTime="13.00" waitingCount="2" stopTime="0.00" timeLoss="30.92" rerouteNo="0" devices="tripinfo_15" vType="DEFAULT_VEHTYPE" speedFactor="1.16" vaporized=""/>
    <tripinfo id="17" depart="87.00" departLane="top3D3_0" departPos="5.10" departSpeed="0.00" departDelay="0.00" arrival="201.00" arrivalLane="B3top1_0" arrivalPos="286.40" arrivalSpeed="14.37" duration="114.00" routeLength="1161.43" waitingTime="10.00" waitingCount="2" stopTime="0.00" timeLoss="33.41" rerouteNo="0" devices="tripinfo_17" vType="DEFAULT_VEHTYPE" speedFactor="1.06" vaporized=""/>
    <tripinfo id="3" depart="25.00" departLane="right1D1_0" departPos="5.10" departSpeed="0.00" departDelay="0.00" arrival="209.00" arrivalLane="B3top1_0" arrivalPos="286.40" arrivalSpeed="13.74" duration="184.00" routeLength="1780.11" waitingTime="24.00" waitingCount="3" stopTime="0.00" timeLoss="54.30" rerouteNo="0" devices="tripinfo_3" vType="DEFAULT_VEHTYPE" speedFactor="1.00" vaporized=""/>
    <tripinfo id="11" depart="56.00" departLane="top0A3_0" departPos="5.10" departSpeed="0.00" departDelay="0.00" arrival="209.00" arrivalLane="D3top3_0" arrivalPos="286.40" arrivalSpeed="13.19" duration="153.00" routeLength="1497.83" waitingTime="28.00" waitingCount="2" stopTime="0.00" timeLoss="45.65" rerouteNo="0" devices="tripinfo_11" vType="DEFAULT_VEHTYPE" speedFactor="1.01" vaporized=""/>
    <tripinfo id="6" depart="38.00" departLane="top2C3_0" departPos="5.10" departSpeed="0.00" departDelay="0.00" arrival="222.00" arrivalLane="A0left0_0" arrivalPos="286.40" arrivalSpeed="13.85" duration="184.00" routeLength="2080.28" waitingTime="11.00" waitingCount="3" stopTime="0.00" timeLoss="45.03" rerouteNo="0" devices="tripinfo_6" vType="DEFAULT_VEHTYPE" speedFactor="1.09" vaporized=""/>
    <tripinfo id="13" depart="69.00" departLane="top0A3_0" departPos="5.10" departSpeed="0.00" departDelay="0.00" arrival="223.00" arrivalLane="D3right3_0" arrivalPos="286.40" arrivalSpeed="11.64" duration="154.00" routeLength="1495.35" waitingTime="10.00" waitingCount="1" stopTime="0.00" timeLoss="25.41" rerouteNo="0" devices="tripinfo_13" vType="DEFAULT_VEHTYPE" speedFactor="0.84" vaporized=""/>
    <tripinfo id="20" depart="111.00" departLane="left3A3_0" departPos="5.10" departSpeed="0.00" departDelay="0.00" arrival="245.00" arrivalLane="D3right3_0" arrivalPos="286.40" arrivalSpeed="16.41" duration="134.00" routeLength="1495.58" waitingTime="18.00" waitingCount="3" stopTime="0.00" timeLoss="45.42" rerouteNo="0" devices="tripinfo_20" vType="DEFAULT_VEHTYPE" speedFactor="1.22" vaporized=""/>
    <tripinfo id="18" depart="96.00" departLane="bottom1B0_0" departPos="5.10" departSpeed="0.00" departDelay="0.00" arrival="250.00" arrivalLane="D1right1_0" arrivalPos="286.40" arrivalSpeed="13.07" duration="154.00" routeLength="1479.94" waitingTime="12.00" waitingCount="3" stopTime="0.00" timeLoss="43.30" rerouteNo="0" devices="tripinfo_18" vType="DEFAULT_VEHTYPE" speedFactor="0.97" vaporized=""/>
    <tripinfo id="12" depart="65.00" departLane="bottom2C0_0" departPos="5.10" departSpeed="0.00" departDelay="0.00" arrival="256.00" arrivalLane="C3top2_0" arrivalPos="286.40" arrivalSpeed="10.29" duration="191.00" routeLength="1495.58" waitingTime="21.00" waitingCount="3" stopTime="0.00" timeLoss="47.65" rerouteNo="0" devices="tripinfo_12" vType="DEFAULT_VEHTYPE" speedFactor="0.75" vaporized=""/>
    <tripinfo id="34" depart="210.00" departLane="bottom2C0_0" departPos="5.10" departSpeed="0.00" departDelay="0.00" arrival="287.00" arrivalLane="D0right0_0" arrivalPos="286.40" arrivalSpeed="14.98" duration="77.00" routeLength="879.60" waitingTime="2.00" waitingCount="2" stopTime="0.00" timeLoss="18.61" rerouteNo="0" devices="tripinfo_34" vType="DEFAULT_VEHTYPE" speedFactor="1.10" vaporized=""/>
    <tripinfo id="30" depart="173.00" departLane="right0D0_0" departPos="5.10" departSpeed="0.00" departDelay="0.00" arrival="288.00" arrivalLane="B0bottom1_0" arrivalPos="286.40" arrivalSpeed="14.13" duration="115.00" routeLength="1197.89" waitingTime="14.00" waitingCount="2" stopTime="0.00" timeLoss="31.88" rerouteNo="0" devices="tripinfo_30" vType="DEFAULT_VEHTYPE" speedFactor="1.05" vaporized=""/>
    <tripinfo id="27" depart="160.00" departLane="bottom2C0_0" departPos="5.10" departSpeed="0.00" departDelay="2.00" arrival="290.00" arrivalLane="D2right2_1" arrivalPos="286.40" arrivalSpeed="14.37" duration="130.00" routeLength="1479.94" waitingTime="1.00" waitingCount="1" stopTime="0.00" timeLoss="29.79" rerouteNo="0" devices="tripinfo_27" vType="DEFAULT_VEHTYPE" speedFactor="1.08" vaporized=""/>
    <tripinfo id="21" depart="118.00" departLane="right1D1_0" departPos="5.10" departSpeed="0.00" departDelay="0.00" arrival="293.00" arrivalLane="A0bottom0_0" arrivalPos="286.40" arrivalSpeed="12.90" duration="175.00" routeLength="1795.52" waitingTime="16.00" waitingCount="3" stopTime="0.00" timeLoss="41.12" rerouteNo="0" devices="tripinfo_21" vType="DEFAULT_VEHTYPE" speedFactor="0.97" vaporized=""/>
    <tripinfo id="24" depart="139.00" departLane="top2C3_0" departPos="5.10" departSpeed="0.00" departDelay="0.00" arrival="295.00" arrivalLane="D2right2_0" arrivalPos="286.40" arrivalSpeed="10.55" duration="156.00" routeLength="1195.18" waitingTime="23.00" waitingCount="3" stopTime="0.00" timeLoss="45.36" rerouteNo="0" devices="tripinfo_24" vType="DEFAULT_VEHTYPE" speedFactor="0.78" vaporized=""/>
    <tripinfo id="14" depart="72.00" departLane="top3D3_0" departPos="5.10" departSpeed="0.00" departDelay="0.00" arrival="299.00" arrivalLane="A0left0_0" arrivalPos="286.40" arrivalSpeed="13.83" duration="227.00" routeLength="2380.45" waitingTime="22.00" waitingCount="5" stopTime="0.00" timeLoss="64.98" rerouteNo="0" devices="tripinfo_14" vType="DEFAULT_VEHTYPE" speedFactor="1.07" vaporized=""/>
    <tripinfo id="26" depart="157.00" departLane="bottom2C0_0" departPos="5.10" departSpeed="0.00" departDelay="0.00" arrival="310.00" arrivalLane="C3top2_0" arrivalPos="286.40" arrivalSpeed="12.41" duration="153.00" routeLength="1495.58" waitingTime="13.00" waitingCount="2" stopTime="0.00" timeLoss="36.94" rerouteNo="0" devices="tripinfo_26" vType="DEFAULT_VEHTYPE" speedFactor="0.93" vaporized=""/>
    <tripinfo id="31" depart="174.00" departLane="bottom0A0_0" departPos="5.10" departSpeed="0.00" departDelay="0.00" arrival="317.00" arrivalLane="A0bottom0_0" arrivalPos="286.40" arrivalSpeed="15.09" duration="143.00" routeLength="1748.75" waitingTime="1.00" waitingCount="1" stopTime="0.00" timeLoss="27.89" rerouteNo="0" devices="tripinfo_31" vType="DEFAULT_VEHTYPE" speedFactor="1.12" vaporized=""/>
    <tripinfo id="29" depart="171.00" departLane="top0A3_0" departPos="5.10" departSpeed="0.00" departDelay="0.00" arrival="320.00" arrivalLane="D3top3_0" arrivalPos="286.40" arrivalSpeed="11.91" duration="149.00" routeLength="1497.83" waitingTime="12.00" waitingCount="1" stopTime="0.00" timeLoss="25.40" rerouteNo="0" devices="tripinfo_29" vType="DEFAULT_VEHTYPE" speedFactor="0.88" vaporized=""/>
    <tripinfo id="19" depart="110.00" departLane="left0A0_0" departPos="5.10" departSpeed="0.00" departDelay="0.00" arrival="322.00" arrivalLane="B3top1_0" arrivalPos="286.40" arrivalSpeed="11.79" duration="212.00" routeLength="1795.52" waitingTime="32.00" waitingCount="4" stopTime="0.00" timeLoss="66.12" rerouteNo="0" devices="tripinfo_19" vType="DEFAULT_VEHTYPE" speedFactor="0.89" vaporized=""/>
    <tripinfo id="33" depart="188.00" departLane="top3D3_0" departPos="5.10" departSpeed="0.00" departDelay="0.00" arrival="336.00" arrivalLane="D0bottom3_0" arrivalPos="286.40" arrivalSpeed="11.45" duration="148.00" routeLength="1495.58" waitingTime="16.00" waitingCount="1" stopTime="0.00" timeLoss="29.60" rerouteNo="0" devices="tripinfo_33" vType="DEFAULT_VEHTYPE" speedFactor="0.91" vaporized=""/>
    <tripinfo id="22" depart="121.00" departLane="left0A0_0" departPos="5.10" departSpeed="0.00" departDelay="0.00" arrival="346.00" arrivalLane="D1right1_0" arrivalPos="286.40" arrivalSpeed="10.44" duration="225.00" routeLength="1782.59" waitingTime="20.00" waitingCount="4" stopTime="0.00" timeLoss="55.25" rerouteNo="0" devices="tripinfo_22" vType="DEFAULT_VEHTYPE" speedFactor="0.76" vaporized=""/>
    <tripinfo id="25" depart="152.00" departLane="bottom2C0_0" departPos="5.10" departSpeed="0.00" departDelay="0.00" arrival="348.00" arrivalLane="A3top0_0" arrivalPos="286.40" arrivalSpeed="14.16" duration="196.00" routeLength="2080.05" waitingTime="30.00" waitingCount="3" stopTime="0.00" timeLoss="58.64" rerouteNo="0" devices="tripinfo_25" vType="DEFAULT_VEHTYPE" speedFactor="1.11" vaporized=""/>
    <tripinfo id="36" depart="220.00" departLane="top2C3_0" departPos="5.10" departSpeed="0.00" departDelay="0.00" arrival="357.00" arrivalLane="C0bottom2_0" arrivalPos="286.40" arrivalSpeed="14.93" duration="137.00" routeLength="1495.58" waitingTime="15.00" waitingCount="3" stopTime="0.00" timeLoss="42.30" rerouteNo="0" devices="tripinfo_36" vType="DEFAULT_VEHTYPE" speedFactor="1.15" vaporized=""/>
    <tripinfo id="38" depart="233.00" departLane="top1B3_0" departPos="5.10" departSpeed="0.00" departDelay="0.00" arrival="358.00" arrivalLane="B0bottom1_0" arrivalPos="286.40" arrivalSpeed="13.77" duration="125.00" routeLength="1495.58" waitingTime="2.00" waitingCount="1" stopTime="0.00" timeLoss="25.00" rerouteNo="0" devices="tripinfo_38" vType="DEFAULT_VEHTYPE" speedFactor="1.08" vaporized=""/>
    <tripinfo id="44" depart="271.00" departLane="left3A3_0" departPos="5.10" departSpeed="0.00" departDelay="0.00" arrival="370.00" arrivalLane="B3top1_0" arrivalPos="286.40" arrivalSpeed="12.88" duration="99.00" routeLength="897.72" waitingTime="16.00" waitingCount="2" stopTime="0.00" timeLoss="31.24" rerouteNo="0" devices="tripinfo_44" vType="DEFAULT_VEHTYPE" speedFactor="0.97" vaporized=""/>
    <tripinfo id="37" depart="227.00" departLane="left1A1_0" departPos="5.10" departSpeed="0.00" departDelay="0.00" arrival="388.00" arrivalLane="B3top1_0" arrivalPos="286.40" arrivalSpeed="13.68" duration="161.00" routeLength="1495.35" waitingTime="30.00" waitingCount="3" stopTime="0.00" timeLoss="55.21" rerouteNo="0" devices="tripinfo_37" vType="DEFAULT_VEHTYPE" speedFactor="1.02" vaporized=""/>
    <tripinfo id="56" depart="318.00" departLane="top2C3_0" departPos="5.10" departSpeed="0.00" departDelay="0.00" arrival="397.00" arrivalLane="B3top1_0" arrivalPos="286.40" arrivalSpeed="13.41" duration="79.00" routeLength="858.56" waitingTime="2.00" waitingCount="2" stopTime="0.00" timeLoss="18.29" rerouteNo="0" devices="tripinfo_56" vType="DEFAULT_VEHTYPE" speedFactor="1.04" vaporized=""/>
    <tripinfo id="43" depart="267.00" departLane="right3D3_0" departPos="5.10" departSpeed="0.00" departDelay="0.00" arrival="399.00" arrivalLane="D0right0_0" arrivalPos="286.40" arrivalSpeed="13.74" duration="132.00" routeLength="1497.83" waitingTime="11.00" waitingCount="1" stopTime="0.00" timeLoss="25.71" rerouteNo="0" devices="tripinfo_43" vType="DEFAULT_VEHTYPE" speedFactor="1.03" vaporized=""/>
    <tripinfo id="32" depart="183.00" departLane="left3A3_0" departPos="5.10" departSpeed="0.00" departDelay="0.00" arrival="400.00" arrivalLane="D1right1_0" arrivalPos="286.40" arrivalSpeed="12.54" duration="217.00" routeLength="2082.76" waitingTime="25.00" waitingCount="4" stopTime="0.00" timeLoss="59.53" rerouteNo="0" devices="tripinfo_32" vType="DEFAULT_VEHTYPE" speedFactor="0.96" vaporized=""/>
    <tripinfo id="45" depart="274.00" departLane="top0A3_0" departPos="5.10" departSpeed="0.00" departDelay="0.00" arrival="400.00" arrivalLane="C3top2_0" arrivalPos="286.40" arrivalSpeed="13.78" duration="126.00" routeLength="1197.66" waitingTime="20.00" waitingCount="2" stopTime="0.00" timeLoss="38.32" rerouteNo="0" devices="tripinfo_45" vType="DEFAULT_VEHTYPE" speedFactor="1.00" vaporized=""/>
    <tripinfo id="58" depart="323.00" departLane="left1A1_0" departPos="5.10" departSpeed="0.00" departDelay="0.00" arrival="405.00" arrivalLane="A2left2_0" arrivalPos="286.40" arrivalSpeed="17.03" duration="82.00" routeLength="894.86" waitingTime="12.00" waitingCount="2" stopTime="0.00" timeLoss="28.97" rerouteNo="0" devices="tripinfo_58" vType="DEFAULT_VEHTYPE" speedFactor="1.24" vaporized=""/>
    <tripinfo id="50" depart="294.00" departLane="top2C3_0" departPos="5.10" departSpeed="0.00" departDelay="0.00" arrival="406.00" arrivalLane="A3top0_0" arrivalPos="286.40" arrivalSpeed="13.04" duration="112.00" routeLength="1161.43" waitingTime="6.00" waitingCount="3" stopTime="0.00" timeLoss="27.13" rerouteNo="0" devices="tripinfo_50" vType="DEFAULT_VEHTYPE" speedFactor="1.00" vaporized=""/>
    <tripinfo id="65" depart="351.00" departLane="top3D3_0" departPos="5.10" departSpeed="0.00" departDelay="0.00" arrival="410.00" arrivalLane="D3right3_0" arrivalPos="286.40" arrivalSpeed="12.77" duration="59.00" routeLength="597.55" waitingTime="5.00" waitingCount="1" stopTime="0.00" timeLoss="12.82" rerouteNo="0" devices="tripinfo_65" vType="DEFAULT_VEHTYPE" speedFactor="0.94" vaporized=""/>
    <tripinfo id="60" depart="332.00" departLane="bottom1B0_0" departPos="5.10" departSpeed="0.00" departDelay="0.00" arrival="414.00" arrivalLane="C0bottom2_0" arrivalPos="286.40" arrivalSpeed="11.62" duration="82.00" routeLength="858.56" waitingTime="1.00" waitingCount="1" stopTime="0.00" timeLoss="14.44" rerouteNo="0" devices="tripinfo_60" vType="DEFAULT_VEHTYPE" speedFactor="0.93" vaporized=""/>
    <tripinfo id="40" depart="260.00" departLane="top3D3_0" departPos="5.10" departSpeed="0.00" departDelay="0.00" arrival="417.00" arrivalLane="C0bottom2_0" arrivalPos="286.40" arrivalSpeed="13.62" duration="157.00" routeLength="1782.72" waitingTime="8.00" waitingCount="2" stopTime="0.00" timeLoss="30.35" rerouteNo="0" devices="tripinfo_40" vType="DEFAULT_VEHTYPE" speedFactor="1.02" vaporized=""/>
    <tripinfo id="46" depart="278.00" departLane="right3D3_0" departPos="5.10" departSpeed="0.00" departDelay="0.00" arrival="418.00" arrivalLane="D0right0_0" arrivalPos="286.40" arrivalSpeed="14.64" duration="140.00" routeLength="1497.83" waitingTime="13.00" waitingCount="2" stopTime="0.00" timeLoss="37.98" rerouteNo="0" devices="tripinfo_46" vType="DEFAULT_VEHTYPE" speedFactor="1.07" vaporized=""/>
    <tripinfo id="47" depart="282.00" departLane="left3A3_0" departPos="5.10" departSpeed="0.00" departDelay="0.00" arrival="419.00" arrivalLane="D3top3_0" arrivalPos="286.40" arrivalSpeed="12.95" duration="137.00" routeLength="1498.06" waitingTime="11.00" waitingCount="1" stopTime="0.00" timeLoss="27.24" rerouteNo="0" devices="tripinfo_47" vType="DEFAULT_VEHTYPE" speedFactor="0.99" vaporized=""/>
    <tripinfo id="35" depart="217.00" departLane="top1B3_0" departPos="5.10" departSpeed="0.00" departDelay="0.00" arrival="420.00" arrivalLane="D1right1_0" arrivalPos="286.40" arrivalSpeed="12.30" duration="203.00" routeLength="1795.52" waitingTime="33.00" waitingCount="5" stopTime="0.00" timeLoss="67.64" rerouteNo="0" devices="tripinfo_35" vType="DEFAULT_VEHTYPE" speedFactor="0.96" vaporized=""/>
    <tripinfo id="28" depart="165.00" departLane="top3D3_0" departPos="5.10" departSpeed="0.00" departDelay="0.00" arrival="421.00" arrivalLane="A0bottom0_0" arrivalPos="286.40" arrivalSpeed="12.58" duration="256.00" routeLength="2382.93" waitingTime="36.00" waitingCount="4" stopTime="0.00" timeLoss="72.90" rerouteNo="0" devices="tripinfo_28" vType="DEFAULT_VEHTYPE" speedFactor="0.95" vaporized=""/>
    <tripinfo id="48" depart="283.00" departLane="bottom1B0_0" departPos="5.10" departSpeed="0.00" departDelay="0.00" arrival="423.00" arrivalLane="D1right1_0" arrivalPos="286.40" arrivalSpeed="12.75" duration="140.00" routeLength="1479.94" waitingTime="8.00" waitingCount="2" stopTime="0.00" timeLoss="29.14" rerouteNo="0" devices="tripinfo_48" vType="DEFAULT_VEHTYPE" speedFactor="0.97" vaporized=""/>
    <tripinfo id="51" depart="294.00" departLane="right3D3_0" departPos="5.10" departSpeed="0.00" departDelay="0.00" arrival="430.00" arrivalLane="A3top0_0" arrivalPos="286.40" arrivalSpeed="12.38" duration="136.00" routeLength="1477.24" waitingTime="1.00" waitingCount="1" stopTime="0.00" timeLoss="19.14" rerouteNo="0" devices="tripinfo_51" vType="DEFAULT_VEHTYPE" speedFactor="0.92" vaporized=""/>
    <tripinfo id="39" depart="258.00" departLane="top1B3_0" departPos="5.10" departSpeed="0.00" departDelay="0.00" arrival="439.00" arrivalLane="D1right1_0" arrivalPos="286.40" arrivalSpeed="13.29" duration="181.00" routeLength="1795.52" waitingTime="23.00" waitingCount="4" stopTime="0.00" timeLoss="53.97" rerouteNo="0" devices="tripinfo_39" vType="DEFAULT_VEHTYPE" speedFactor="1.03" vaporized=""/>
    <tripinfo id="42" depart="266.00" departLane="left3A3_0" departPos="5.10" departSpeed="0.00" departDelay="0.00" arrival="442.00" arrivalLane="A3left3_0" arrivalPos="286.40" arrivalSpeed="12.17" duration="176.00" routeLength="1748.75" waitingTime="9.00" waitingCount="3" stopTime="0.00" timeLoss="37.37" rerouteNo="0" devices="tripinfo_42" vType="DEFAULT_VEHTYPE" speedFactor="0.92" vaporized=""/>
    <tripinfo id="49" depart="290.00" departLane="right2D2_0" departPos="5.10" departSpeed="0.00" departDelay="0.00" arrival="446.00" arrivalLane="A3top0_0" arrivalPos="286.40" arrivalSpeed="15.68" duration="156.00" routeLength="1780.11" waitingTime="17.00" waitingCount="3" stopTime="0.00" timeLoss="45.83" rerouteNo="0" devices="tripinfo_49" vType="DEFAULT_VEHTYPE" speedFactor="1.17" vaporized=""/>
    <tripinfo id="53" depart="305.00" departLane="left2A2_0" departPos="5.10" departSpeed="0.00" departDelay="0.00" arrival="447.00" arrivalLane="B3top1_0" arrivalPos="286.40" arrivalSpeed="15.22" duration="142.00" routeLength="1195.18" waitingTime="37.00" waitingCount="3" stopTime="0.00" timeLoss="62.70" rerouteNo="0" devices="tripinfo_53" vType="DEFAULT_VEHTYPE" speedFactor="1.10" vaporized=""/>
    <tripinfo id="59" depart="327.00" departLane="right3D3_0" departPos="5.10" departSpeed="0.00" departDelay="0.00" arrival="449.00" arrivalLane="D0bottom3_0" arrivalPos="286.40" arrivalSpeed="14.40" duration="122.00" routeLength="1495.35" waitingTime="5.00" waitingCount="1" stopTime="0.00" timeLoss="19.49" rerouteNo="0" devices="tripinfo_59" vType="DEFAULT_VEHTYPE" speedFactor="1.06" vaporized=""/>
    <tripinfo id="52" depart="301.00" departLane="right0D0_0" departPos="5.10" departSpeed="0.00" departDelay="0.00" arrival="452.00" arrivalLane="B0bottom1_0" arrivalPos="286.40" arrivalSpeed="11.40" duration="151.00" routeLength="1197.89" waitingTime="33.00" waitingCount="3" stopTime="0.00" timeLoss="53.19" rerouteNo="0" devices="tripinfo_52" vType="DEFAULT_VEHTYPE" speedFactor="0.89" vaporized=""/>
    <tripinfo id="64" depart="346.00" departLane="left1A1_0" departPos="5.10" departSpeed="0.00" departDelay="0.00" arrival="465.00" arrivalLane="B0bottom1_0" arrivalPos="286.40" arrivalSpeed="11.84" duration="119.00" routeLength="1179.77" waitingTime="7.00" waitingCount="1" stopTime="0.00" timeLoss="23.54" rerouteNo="0" devices="tripinfo_64" vType="DEFAULT_VEHTYPE" speedFactor="0.90" vaporized=""/>
    <tripinfo id="61" depart="335.00" departLane="left3A3_0" departPos="5.10" departSpeed="0.00" departDelay="0.00" arrival="490.00" arrivalLane="D2right2_0" arrivalPos="286.40" arrivalSpeed="12.92" duration="155.00" routeLength="1782.72" waitingTime="1.00" waitingCount="1" stopTime="0.00" timeLoss="20.53" rerouteNo="0" devices="tripinfo_61" vType="DEFAULT_VEHTYPE" speedFactor="0.97" vaporized=""/>
    <tripinfo id="77" depart="420.00" departLane="right0D0_0" departPos="5.10" departSpeed="0.00" departDelay="0.00" arrival="491.00" arrivalLane="D0bottom3_0" arrivalPos="286.40" arrivalSpeed="12.69" duration="71.00" routeLength="597.55" waitingTime="13.00" waitingCount="1" stopTime="0.00" timeLoss="25.11" rerouteNo="0" devices="tripinfo_77" vType="DEFAULT_VEHTYPE" speedFactor="0.96" vaporized=""/>
    <tripinfo id="78" depart="422.00" departLane="top0A3_0" departPos="5.10" departSpeed="0.00" departDelay="0.00" arrival="509.00" arrivalLane="B3top1_0" arrivalPos="286.40" arrivalSpeed="14.16" duration="87.00" routeLength="894.86" waitingTime="11.00" waitingCount="1" stopTime="0.00" timeLoss="23.25" rerouteNo="0" devices="tripinfo_78" vType="DEFAULT_VEHTYPE" speedFactor="1.03" vaporized=""/>
    <tripinfo id="62" depart="341.00" departLane="top2C3_0" departPos="5.10" departSpeed="0.00" departDelay="0.00" arrival="512.00" arrivalLane="A2left2_0" arrivalPos="286.40" arrivalSpeed="10.69" duration="171.00" routeLength="1479.94" waitingTime="16.00" waitingCount="3" stopTime="0.00" timeLoss="44.88" rerouteNo="0" devices="tripinfo_62" vType="DEFAULT_VEHTYPE" speedFactor="0.85" vaporized=""/>
    <tripinfo id="54" depart="314.00" departLane="bottom2C0_0" departPos="5.10" departSpeed="0.00" departDelay="0.00" arrival="513.00" arrivalLane="A2left2_1" arrivalPos="286.40" arrivalSpeed="12.09" duration="199.00" routeLength="1795.52" waitingTime="20.00" waitingCount="3" stopTime="0.00" timeLoss="54.87" rerouteNo="0" devices="tripinfo_54" vType="DEFAULT_VEHTYPE" speedFactor="0.90" vaporized=""/>
    <tripinfo id="41" depart="263.00" departLane="top3D3_0" departPos="5.10" departSpeed="0.00" departDelay="0.00" arrival="516.00" arrivalLane="A0left0_0" arrivalPos="286.40" arrivalSpeed="12.13" duration="253.00" routeLength="2380.45" waitingTime="29.00" waitingCount="2" stopTime="0.00" timeLoss="62.30" rerouteNo="0" devices="tripinfo_41" vType="DEFAULT_VEHTYPE" speedFactor="0.90" vaporized=""/>
    <tripinfo id="67" depart="365.00" departLane="top0A3_0" departPos="5.10" departSpeed="0.00" departDelay="0.00" arrival="516.00" arrivalLane="D3right3_0" arrivalPos="286.40" arrivalSpeed="11.73" duration="151.00" routeLength="1495.35" waitingTime="9.00" waitingCount="1" stopTime="0.00" timeLoss="31.74" rerouteNo="0" devices="tripinfo_67" vType="DEFAULT_VEHTYPE" speedFactor="0.91" vaporized=""/>
    <tripinfo id="72" depart="402.00" departLane="left2A2_0" departPos="5.10" departSpeed="0.00" departDelay="0.00" arrival="519.00" arrivalLane="A0bottom0_0" arrivalPos="286.40" arrivalSpeed="13.22" duration="117.00" routeLength="1179.77" waitingTime="14.00" waitingCount="2" stopTime="0.00" timeLoss="30.66" rerouteNo="0" devices="tripinfo_72" vType="DEFAULT_VEHTYPE" speedFactor="1.00" vaporized=""/>
    <tripinfo id="83" depart="432.00" departLane="top1B3_0" departPos="5.10" departSpeed="0.00" departDelay="0.00" arrival="519.00" arrivalLane="A3left3_0" arrivalPos="286.40" arrivalSpeed="13.34" duration="87.00" routeLength="879.60" waitingTime="8.00" waitingCount="2" stopTime="0.00" timeLoss="22.69" rerouteNo="0" devices="tripinfo_83" vType="DEFAULT_VEHTYPE" speedFactor="1.00" vaporized=""/>
    <tripinfo id="66" depart="363.00" departLane="left0A0_0" departPos="5.10" departSpeed="0.00" departDelay="0.00" arrival="530.00" arrivalLane="A3left3_0" arrivalPos="286.40" arrivalSpeed="12.24" duration="167.00" routeLength="1497.83" waitingTime="25.00" waitingCount="4" stopTime="0.00" timeLoss="53.39" rerouteNo="0" devices="tripinfo_66" vType="DEFAULT_VEHTYPE" speedFactor="0.96" vaporized=""/>
    <tripinfo id="79" depart="423.00" departLane="bottom0A0_0" departPos="5.10" departSpeed="0.00" departDelay="0.00" arrival="539.00" arrivalLane="A3left3_0" arrivalPos="286.40" arrivalSpeed="15.08" duration="116.00" routeLength="1498.06" waitingTime="4.00" waitingCount="1" stopTime="0.00" timeLoss="22.20" rerouteNo="0" devices="tripinfo_79" vType="DEFAULT_VEHTYPE" speedFactor="1.16" vaporized=""/>
    <tripinfo id="63" depart="343.00" departLane="bottom2C0_0" departPos="5.10" departSpeed="0.00" departDelay="0.00" arrival="541.00" arrivalLane="A3top0_1" arrivalPos="286.40" arrivalSpeed="13.50" duration="198.00" routeLength="2080.05" waitingTime="22.00" waitingCount="4" stopTime="0.00" timeLoss="52.52" rerouteNo="0" devices="tripinfo_63" vType="DEFAULT_VEHTYPE" speedFactor="1.04" vaporized=""/>