<?xml version="1.0" encoding="UTF-8"?>

<!-- generated on 12/19/21 17:24:33 by Eclipse SUMO sumo Version 1.7.0
<configuration xmlns:xsi="http://www.w3.org/2001/XMLSchema-instance" xsi:noNamespaceSchemaLocation="http://sumo.dlr.de/xsd/sumoConfiguration.xsd">

    <input>
        <net-file value="C:\Users\longs\Desktop\RESCO-main\environments\grid4x4\grid4x4.net.xml"/>
        <route-files value="C:\Users\longs\Desktop\RESCO-main\environments\grid4x4\grid4x4_4.rou.xml"/>
    </input>

    <output>
        <tripinfo-output value="C:\Users\longs\Desktop\RESCO-main\logs\IDQN-tr1-grid4x4-0-drqlong-delaydiff_pressure09\tripinfo_4.xml"/>
        <tripinfo-output.write-unfinished value="true"/>
    </output>

    <processing>
        <time-to-teleport value="-1"/>
    </processing>

    <report>
        <no-warnings value="true"/>
        <no-step-log value="true"/>
    </report>

    <traci_server>
        <remote-port value="57030"/>
    </traci_server>

    <random_number>
        <random value="true"/>
    </random_number>

</configuration>
-->

<tripinfos xmlns:xsi="http://www.w3.org/2001/XMLSchema-instance" xsi:noNamespaceSchemaLocation="http://sumo.dlr.de/xsd/tripinfo_file.xsd">
    <tripinfo id="0" depart="4.00" departLane="bottom0A0_0" departPos="5.10" departSpeed="0.00" departDelay="0.00" arrival="101.00" arrivalLane="B0bottom1_0" arrivalPos="286.40" arrivalSpeed="10.70" duration="97.00" routeLength="858.56" waitingTime="2.00" waitingCount="2" stopTime="0.00" timeLoss="19.72" rerouteNo="0" devices="tripinfo_0" vType="DEFAULT_VEHTYPE" speedFactor="0.82" vaporized=""/>
    <tripinfo id="10" depart="34.00" departLane="top0A3_0" departPos="5.10" departSpeed="0.00" departDelay="0.00" arrival="121.00" arrivalLane="A1left1_0" arrivalPos="286.40" arrivalSpeed="13.97" duration="87.00" routeLength="1177.07" waitingTime="0.00" waitingCount="0" stopTime="0.00" timeLoss="8.52" rerouteNo="0" devices="tripinfo_10" vType="DEFAULT_VEHTYPE" speedFactor="1.09" vaporized=""/>
    <tripinfo id="6" depart="20.00" departLane="bottom0A0_0" departPos="5.10" departSpeed="0.00" departDelay="0.00" arrival="128.00" arrivalLane="A2left2_0" arrivalPos="286.40" arrivalSpeed="14.16" duration="108.00" routeLength="1197.89" waitingTime="10.00" waitingCount="2" stopTime="0.00" timeLoss="27.37" rerouteNo="0" devices="tripinfo_6" vType="DEFAULT_VEHTYPE" speedFactor="1.09" vaporized=""/>
    <tripinfo id="3" depart="13.00" departLane="bottom2C0_0" departPos="5.10" departSpeed="0.00" departDelay="0.00" arrival="136.00" arrivalLane="D1right1_0" arrivalPos="286.40" arrivalSpeed="11.88" duration="123.00" routeLength="1179.77" waitingTime="13.00" waitingCount="2" stopTime="0.00" timeLoss="29.05" rerouteNo="0" devices="tripinfo_3" vType="DEFAULT_VEHTYPE" speedFactor="0.91" vaporized=""/>
    <tripinfo id="14" depart="60.00" departLane="bottom0A0_0" departPos="5.10" departSpeed="0.00" departDelay="0.00" arrival="138.00" arrivalLane="B0bottom1_0" arrivalPos="286.40" arrivalSpeed="15.54" duration="78.00" routeLength="858.56" waitingTime="2.00" waitingCount="2" stopTime="0.00" timeLoss="22.75" rerouteNo="0" devices="tripinfo_14" vType="DEFAULT_VEHTYPE" speedFactor="1.14" vaporized=""/>
    <tripinfo id="9" depart="28.00" departLane="bottom2C0_0" departPos="5.10" departSpeed="0.00" departDelay="0.00" arrival="168.00" arrivalLane="D1right1_0" arrivalPos="286.40" arrivalSpeed="13.27" duration="140.00" routeLength="1179.77" waitingTime="30.00" waitingCount="3" stopTime="0.00" timeLoss="57.40" rerouteNo="0" devices="tripinfo_9" vType="DEFAULT_VEHTYPE" speedFactor="1.04" vaporized=""/>
    <tripinfo id="19" depart="83.00" departLane="left0A0_0" departPos="5.10" departSpeed="0.00" departDelay="0.00" arrival="190.00" arrivalLane="B0bottom1_0" arrivalPos="286.40" arrivalSpeed="12.25" duration="107.00" routeLength="876.90" waitingTime="21.00" waitingCount="1" stopTime="0.00" timeLoss="35.26" rerouteNo="0" devices="tripinfo_19" vType="DEFAULT_VEHTYPE" speedFactor="0.90" vaporized=""/>
    <tripinfo id="4" depart="17.00" departLane="left1A1_0" departPos="5.10" departSpeed="0.00" departDelay="0.00" arrival="191.00" arrivalLane="A1left1_0" arrivalPos="286.40" arrivalSpeed="12.38" duration="174.00" routeLength="1748.75" waitingTime="11.00" waitingCount="4" stopTime="0.00" timeLoss="37.50" rerouteNo="0" devices="tripinfo_4" vType="DEFAULT_VEHTYPE" speedFactor="0.94" vaporized=""/>
    <tripinfo id="17" depart="82.00" departLane="top1B3_0" departPos="5.10" departSpeed="0.00" departDelay="0.00" arrival="200.00" arrivalLane="A3left3_0" arrivalPos="286.40" arrivalSpeed="12.33" duration="118.00" routeLength="879.60" waitingTime="35.00" waitingCount="2" stopTime="0.00" timeLoss="50.62" rerouteNo="0" devices="tripinfo_17" vType="DEFAULT_VEHTYPE" speedFactor="0.95" vaporized=""/>
    <tripinfo id="1" depart="9.00" departLane="left3A3_0" departPos="5.10" departSpeed="0.00" departDelay="0.00" arrival="218.00" arrivalLane="D2right2_0" arrivalPos="286.40" arrivalSpeed="12.96" duration="209.00" routeLength="1782.72" waitingTime="54.00" waitingCount="4" stopTime="0.00" timeLoss="82.66" rerouteNo="0" devices="tripinfo_1" vType="DEFAULT_VEHTYPE" speedFactor="1.03" vaporized=""/>
    <tripinfo id="18" depart="83.00" departLane="right2D2_0" departPos="5.10" departSpeed="0.00" departDelay="0.00" arrival="221.00" arrivalLane="D1right1_0" arrivalPos="286.40" arrivalSpeed="12.82" duration="138.00" routeLength="894.86" waitingTime="53.00" waitingCount="2" stopTime="0.00" timeLoss="67.16" rerouteNo="0" devices="tripinfo_18" vType="DEFAULT_VEHTYPE" speedFactor="0.93" vaporized=""/>
    <tripinfo id="20" depart="90.00" departLane="right3D3_0" departPos="5.10" departSpeed="0.00" departDelay="0.00" arrival="234.00" arrivalLane="D0bottom3_0" arrivalPos="286.40" arrivalSpeed="12.96" duration="144.00" routeLength="1495.35" waitingTime="18.00" waitingCount="2" stopTime="0.00" timeLoss="36.52" rerouteNo="0" devices="tripinfo_20" vType="DEFAULT_VEHTYPE" speedFactor="1.01" vaporized=""/>
    <tripinfo id="40" depart="161.00" departLane="bottom2C0_0" departPos="5.10" departSpeed="0.00" departDelay="0.00" arrival="237.00" arrivalLane="D0bottom3_0" arrivalPos="286.40" arrivalSpeed="14.80" duration="76.00" routeLength="858.56" waitingTime="2.00" waitingCount="2" stopTime="0.00" timeLoss="19.96" rerouteNo="0" devices="tripinfo_40" vType="DEFAULT_VEHTYPE" speedFactor="1.13" vaporized=""/>
    <tripinfo id="12" depart="37.00" departLane="right3D3_0" departPos="5.10" departSpeed="0.00" departDelay="0.00" arrival="250.00" arrivalLane="B0bottom1_0" arrivalPos="286.40" arrivalSpeed="14.13" duration="213.00" routeLength="2095.69" waitingTime="39.00" waitingCount="3" stopTime="0.00" timeLoss="66.95" rerouteNo="0" devices="tripinfo_12" vType="DEFAULT_VEHTYPE" speedFactor="1.04" vaporized=""/>
    <tripinfo id="22" depart="98.00" departLane="right2D2_0" departPos="5.10" departSpeed="0.00" departDelay="0.00" arrival="258.00" arrivalLane="D3top3_0" arrivalPos="286.40" arrivalSpeed="14.47" duration="160.00" routeLength="879.60" waitingTime="82.00" waitingCount="2" stopTime="0.00" timeLoss="98.61" rerouteNo="0" devices="tripinfo_22" vType="DEFAULT_VEHTYPE" speedFactor="1.05" vaporized=""/>
    <tripinfo id="16" depart="67.00" departLane="right3D3_0" departPos="5.10" departSpeed="0.00" departDelay="0.00" arrival="260.00" arrivalLane="B3top1_0" arrivalPos="286.40" arrivalSpeed="12.58" duration="193.00" routeLength="1177.07" waitingTime="77.00" waitingCount="3" stopTime="0.00" timeLoss="101.29" rerouteNo="0" devices="tripinfo_16" vType="DEFAULT_VEHTYPE" speedFactor="0.93" vaporized=""/>
    <tripinfo id="2" depart="10.00" departLane="top3D3_0" departPos="5.10" departSpeed="0.00" departDelay="0.00" arrival="300.00" arrivalLane="A0left0_0" arrivalPos="286.40" arrivalSpeed="14.72" duration="290.00" routeLength="2380.45" waitingTime="90.00" waitingCount="5" stopTime="0.00" timeLoss="128.18" rerouteNo="0" devices="tripinfo_2" vType="DEFAULT_VEHTYPE" speedFactor="1.07" vaporized=""/>
    <tripinfo id="33" depart="136.00" departLane="top1B3_0" departPos="5.10" departSpeed="0.00" departDelay="0.00" arrival="300.00" arrivalLane="B0bottom1_0" arrivalPos="286.40" arrivalSpeed="12.24" duration="164.00" routeLength="1495.58" waitingTime="26.00" waitingCount="3" stopTime="0.00" timeLoss="52.17" rerouteNo="0" devices="tripinfo_33" vType="DEFAULT_VEHTYPE" speedFactor="0.97" vaporized=""/>
    <tripinfo id="52" depart="239.00" departLane="right3D3_0" departPos="5.10" departSpeed="0.00" departDelay="0.00" arrival="304.00" arrivalLane="D3top3_0" arrivalPos="286.40" arrivalSpeed="10.16" duration="65.00" routeLength="576.73" waitingTime="0.00" waitingCount="0" stopTime="0.00" timeLoss="10.10" rerouteNo="0" devices="tripinfo_52" vType="DEFAULT_VEHTYPE" speedFactor="0.77" vaporized=""/>
    <tripinfo id="7" depart="21.00" departLane="top2C3_0" departPos="5.10" departSpeed="0.00" departDelay="0.00" arrival="309.00" arrivalLane="C3top2_0" arrivalPos="286.40" arrivalSpeed="12.84" duration="288.00" routeLength="1748.75" waitingTime="127.00" waitingCount="4" stopTime="0.00" timeLoss="160.96" rerouteNo="0" devices="tripinfo_7" vType="DEFAULT_VEHTYPE" speedFactor="1.01" vaporized=""/>
    <tripinfo id="30" depart="128.00" departLane="left3A3_0" departPos="5.10" departSpeed="0.00" departDelay="0.00" arrival="315.00" arrivalLane="A0bottom0_0" arrivalPos="286.40" arrivalSpeed="10.21" duration="187.00" routeLength="1479.94" waitingTime="29.00" waitingCount="3" stopTime="0.00" timeLoss="54.79" rerouteNo="0" devices="tripinfo_30" vType="DEFAULT_VEHTYPE" speedFactor="0.81" vaporized=""/>
    <tripinfo id="5" depart="18.00" departLane="right0D0_0" departPos="5.10" departSpeed="0.00" departDelay="0.00" arrival="324.00" arrivalLane="A2left2_0" arrivalPos="286.40" arrivalSpeed="11.02" duration="306.00" routeLength="2082.76" waitingTime="87.00" waitingCount="5" stopTime="0.00" timeLoss="127.52" rerouteNo="0" devices="tripinfo_5" vType="DEFAULT_VEHTYPE" speedFactor="0.85" vaporized=""/>
    <tripinfo id="25" depart="105.00" departLane="left3A3_0" departPos="5.10" departSpeed="0.00" departDelay="0.00" arrival="328.00" arrivalLane="D2right2_0" arrivalPos="286.40" arrivalSpeed="14.34" duration="223.00" routeLength="1782.72" waitingTime="78.00" waitingCount="3" stopTime="0.00" timeLoss="104.57" rerouteNo="0" devices="tripinfo_25" vType="DEFAULT_VEHTYPE" speedFactor="1.10" vaporized=""/>
    <tripinfo id="43" depart="186.00" departLane="bottom0A0_0" departPos="5.10" departSpeed="0.00" departDelay="0.00" arrival="328.00" arrivalLane="D0bottom3_0" arrivalPos="286.40" arrivalSpeed="13.16" duration="142.00" routeLength="1461.60" waitingTime="9.00" waitingCount="3" stopTime="0.00" timeLoss="32.49" rerouteNo="0" devices="tripinfo_43" vType="DEFAULT_VEHTYPE" speedFactor="0.97" vaporized=""/>
    <tripinfo id="27" depart="119.00" departLane="right2D2_0" departPos="5.10" departSpeed="0.00" departDelay="0.00" arrival="338.00" arrivalLane="A1left1_0" arrivalPos="286.40" arrivalSpeed="14.13" duration="219.00" routeLength="1782.59" waitingTime="71.00" waitingCount="3" stopTime="0.00" timeLoss="98.73" rerouteNo="0" devices="tripinfo_27" vType="DEFAULT_VEHTYPE" speedFactor="1.07" vaporized=""/>
    <tripinfo id="35" depart="138.00" departLane="left3A3_0" departPos="5.10" departSpeed="0.00" departDelay="0.00" arrival="338.00" arrivalLane="A3left3_0" arrivalPos="286.40" arrivalSpeed="13.95" duration="200.00" routeLength="1748.75" waitingTime="46.00" waitingCount="4" stopTime="0.00" timeLoss="82.06" rerouteNo="0" devices="tripinfo_35" vType="DEFAULT_VEHTYPE" speedFactor="1.09" vaporized=""/>
    <tripinfo id="21" depart="97.00" departLane="top0A3_0" departPos="5.10" departSpeed="0.00" departDelay="0.00" arrival="340.00" arrivalLane="D1right1_0" arrivalPos="286.40" arrivalSpeed="13.63" duration="243.00" routeLength="2095.69" waitingTime="53.00" waitingCount="4" stopTime="0.00" timeLoss="88.12" rerouteNo="0" devices="tripinfo_21" vType="DEFAULT_VEHTYPE" speedFactor="0.98" vaporized=""/>
    <tripinfo id="29" depart="122.00" departLane="right2D2_0" departPos="5.10" departSpeed="0.00" departDelay="0.00" arrival="341.00" arrivalLane="A3top0_0" arrivalPos="286.40" arrivalSpeed="11.82" duration="219.00" routeLength="1780.11" waitingTime="51.00" waitingCount="3" stopTime="0.00" timeLoss="78.61" rerouteNo="0" devices="tripinfo_29" vType="DEFAULT_VEHTYPE" speedFactor="0.92" vaporized=""/>
    <tripinfo id="11" depart="35.00" departLane="top2C3_0" departPos="5.10" departSpeed="0.00" departDelay="0.00" arrival="348.00" arrivalLane="D0bottom3_1" arrivalPos="286.40" arrivalSpeed="14.63" duration="313.00" routeLength="1782.59" waitingTime="145.00" waitingCount="2" stopTime="0.00" timeLoss="198.96" rerouteNo="0" devices="tripinfo_11" vType="DEFAULT_VEHTYPE" speedFactor="1.14" vaporized=""/>
    <tripinfo id="8" depart="27.00" departLane="top2C3_0" departPos="5.10" departSpeed="0.00" departDelay="0.00" arrival="351.00" arrivalLane="D0bottom3_0" arrivalPos="286.40" arrivalSpeed="11.50" duration="324.00" routeLength="1782.59" waitingTime="149.00" waitingCount="2" stopTime="0.00" timeLoss="182.54" rerouteNo="0" devices="tripinfo_8" vType="DEFAULT_VEHTYPE" speedFactor="0.92" vaporized=""/>
    <tripinfo id="49" depart="229.00" departLane="top2C3_0" departPos="5.10" departSpeed="0.00" departDelay="0.00" arrival="359.00" arrivalLane="A3left3_0" arrivalPos="286.40" arrivalSpeed="13.39" duration="130.00" routeLength="1179.77" waitingTime="26.00" waitingCount="2" stopTime="0.00" timeLoss="45.56" rerouteNo="0" devices="tripinfo_49" vType="DEFAULT_VEHTYPE" speedFactor="1.02" vaporized=""/>
    <tripinfo id="41" depart="174.00" departLane="top3D3_0" departPos="5.10" departSpeed="0.00" departDelay="0.00" arrival="368.00" arrivalLane="D3right3_0" arrivalPos="286.40" arrivalSpeed="14.01" duration="194.00" routeLength="597.55" waitingTime="142.00" waitingCount="1" stopTime="0.00" timeLoss="152.46" rerouteNo="0" devices="tripinfo_41" vType="DEFAULT_VEHTYPE" speedFactor="1.06" vaporized=""/>
    <tripinfo id="51" depart="238.00" departLane="left1A1_0" departPos="5.10" departSpeed="0.00" departDelay="0.00" arrival="372.00" arrivalLane="B0bottom1_0" arrivalPos="286.40" arrivalSpeed="11.27" duration="134.00" routeLength="1179.77" waitingTime="21.00" waitingCount="1" stopTime="0.00" timeLoss="37.90" rerouteNo="0" devices="tripinfo_51" vType="DEFAULT_VEHTYPE" speedFactor="0.89" vaporized=""/>
    <tripinfo id="13" depart="40.00" departLane="bottom0A0_0" departPos="5.10" departSpeed="0.00" departDelay="0.00" arrival="373.00" arrivalLane="D2right2_0" arrivalPos="286.40" arrivalSpeed="11.07" duration="333.00" routeLength="2080.28" waitingTime="122.00" waitingCount="5" stopTime="0.00" timeLoss="156.45" rerouteNo="0" devices="tripinfo_13" vType="DEFAULT_VEHTYPE" speedFactor="0.85" vaporized=""/>
    <tripinfo id="23" depart="98.00" departLane="bottom3D0_0" departPos="5.10" departSpeed="0.00" departDelay="0.00" arrival="397.00" arrivalLane="C3top2_0" arrivalPos="286.40" arrivalSpeed="15.19" duration="299.00" routeLength="1782.59" waitingTime="148.00" waitingCount="4" stopTime="0.00" timeLoss="180.84" rerouteNo="0" devices="tripinfo_23" vType="DEFAULT_VEHTYPE" speedFactor="1.10" vaporized=""/>
    <tripinfo id="48" depart="214.00" departLane="left1A1_0" departPos="5.10" departSpeed="0.00" departDelay="0.00" arrival="401.00" arrivalLane="D0bottom3_0" arrivalPos="286.40" arrivalSpeed="13.11" duration="187.00" routeLength="1780.11" waitingTime="33.00" waitingCount="2" stopTime="0.00" timeLoss="61.03" rerouteNo="0" devices="tripinfo_48" vType="DEFAULT_VEHTYPE" speedFactor="1.03" vaporized=""/>
    <tripinfo id="44" depart="193.00" departLane="left0A0_0" departPos="5.10" departSpeed="0.00" departDelay="0.00" arrival="403.00" arrivalLane="D0bottom3_0" arrivalPos="286.40" arrivalSpeed="14.50" duration="210.00" routeLength="1477.24" waitingTime="83.00" waitingCount="4" stopTime="0.00" timeLoss="114.77" rerouteNo="0" devices="tripinfo_44" vType="DEFAULT_VEHTYPE" speedFactor="1.13" vaporized=""/>
    <tripinfo id="56" depart="261.00" departLane="top0A3_0" departPos="5.10" departSpeed="0.00" departDelay="0.00" arrival="416.00" arrivalLane="A2left2_0" arrivalPos="286.40" arrivalSpeed="10.95" duration="155.00" routeLength="876.90" waitingTime="61.00" waitingCount="2" stopTime="0.00" timeLoss="78.59" rerouteNo="0" devices="tripinfo_56" vType="DEFAULT_VEHTYPE" speedFactor="0.84" vaporized=""/>
    <tripinfo id="55" depart="253.00" departLane="top1B3_0" departPos="5.10" departSpeed="0.00" departDelay="0.00" arrival="417.00" arrivalLane="B3top1_0" arrivalPos="286.40" arrivalSpeed="15.28" duration="164.00" routeLength="1748.75" waitingTime="12.00" waitingCount="5" stopTime="0.00" timeLoss="48.67" rerouteNo="0" devices="tripinfo_55" vType="DEFAULT_VEHTYPE" speedFactor="1.11" vaporized=""/>
    <tripinfo id="50" depart="236.00" departLane="top3D3_0" departPos="5.10" departSpeed="0.00" departDelay="0.00" arrival="426.00" arrivalLane="D2right2_0" arrivalPos="286.40" arrivalSpeed="10.50" duration="190.00" routeLength="897.72" waitingTime="91.00" waitingCount="2" stopTime="0.00" timeLoss="107.18" rerouteNo="0" devices="tripinfo_50" vType="DEFAULT_VEHTYPE" speedFactor="0.79" vaporized=""/>
    <tripinfo id="28" depart="122.00" departLane="top0A3_0" departPos="5.10" departSpeed="0.00" departDelay="0.00" arrival="429.00" arrivalLane="D1right1_0" arrivalPos="286.40" arrivalSpeed="13.20" duration="307.00" routeLength="2095.69" waitingTime="114.00" waitingCount="5" stopTime="0.00" timeLoss="159.26" rerouteNo="0" devices="tripinfo_28" vType="DEFAULT_VEHTYPE" speedFactor="1.03" vaporized=""/>
    <tripinfo id="37" depart="147.00" departLane="bottom0A0_0" departPos="5.10" departSpeed="0.00" departDelay="0.00" arrival="429.00" arrivalLane="D3right3_0" arrivalPos="286.40" arrivalSpeed="14.22" duration="282.00" routeLength="2380.45" waitingTime="77.00" waitingCount="5" stopTime="0.00" timeLoss="115.22" rerouteNo="0" devices="tripinfo_37" vType="DEFAULT_VEHTYPE" speedFactor="1.03" vaporized=""/>
    <tripinfo id="24" depart="102.00" departLane="right0D0_0" departPos="5.10" departSpeed="0.00" departDelay="0.00" arrival="430.00" arrivalLane="A3top0_0" arrivalPos="286.40" arrivalSpeed="12.88" duration="328.00" routeLength="2380.45" waitingTime="112.00" waitingCount="5" stopTime="0.00" timeLoss="149.14" rerouteNo="0" devices="tripinfo_24" vType="DEFAULT_VEHTYPE" speedFactor="0.96" vaporized=""/>
    <tripinfo id="53" depart="243.00" departLane="left0A0_0" departPos="5.10" departSpeed="0.00" departDelay="0.00" arrival="433.00" arrivalLane="D1right1_0" arrivalPos="286.40" arrivalSpeed="11.96" duration="190.00" routeLength="1782.59" waitingTime="28.00" waitingCount="3" stopTime="0.00" timeLoss="51.89" rerouteNo="0" devices="tripinfo_53" vType="DEFAULT_VEHTYPE" speedFactor="0.94" vaporized=""/>
    <tripinfo id="72" depart="352.00" departLane="left2A2_0" departPos="5.10" departSpeed="0.00" departDelay="0.00" arrival="435.00" arrivalLane="A1left1_0" arrivalPos="286.40" arrivalSpeed="13.10" duration="83.00" routeLength="858.56" waitingTime="2.00" waitingCount="2" stopTime="0.00" timeLoss="17.47" rerouteNo="0" devices="tripinfo_72" vType="DEFAULT_VEHTYPE" speedFactor="0.97" vaporized=""/>
    <tripinfo id="45" depart="193.00" departLane="left3A3_0" departPos="5.10" departSpeed="0.00" departDelay="0.00" arrival="438.00" arrivalLane="A0bottom0_0" arrivalPos="286.40" arrivalSpeed="14.15" duration="245.00" routeLength="1479.94" waitingTime="112.00" waitingCount="4" stopTime="0.00" timeLoss="142.83" rerouteNo="0" devices="tripinfo_45" vType="DEFAULT_VEHTYPE" speedFactor="1.05" vaporized=""/>
    <tripinfo id="26" depart="108.00" departLane="top2C3_0" departPos="5.10" departSpeed="0.00" departDelay="0.00" arrival="440.00" arrivalLane="D0bottom3_0" arrivalPos="286.40" arrivalSpeed="12.64" duration="332.00" routeLength="1782.59" waitingTime="157.00" waitingCount="5" stopTime="0.00" timeLoss="196.02" rerouteNo="0" devices="tripinfo_26" vType="DEFAULT_VEHTYPE" speedFactor="0.95" vaporized=""/>
    <tripinfo id="42" depart="184.00" departLane="top0A3_0" departPos="5.10" departSpeed="0.00" departDelay="0.00" arrival="441.00" arrivalLane="C3top2_0" arrivalPos="286.40" arrivalSpeed="11.80" duration="257.00" routeLength="1197.66" waitingTime="141.00" waitingCount="2" stopTime="0.00" timeLoss="162.38" rerouteNo="0" devices="tripinfo_42" vType="DEFAULT_VEHTYPE" speedFactor="0.92" vaporized=""/>
    <tripinfo id="61" depart="294.00" departLane="top3D3_0" departPos="5.10" departSpeed="0.00" departDelay="0.00" arrival="441.00" arrivalLane="D0bottom3_1" arrivalPos="286.40" arrivalSpeed="13.60" duration="147.00" routeLength="1495.58" waitingTime="13.00" waitingCount="2" stopTime="0.00" timeLoss="39.74" rerouteNo="0" devices="tripinfo_61" vType="DEFAULT_VEHTYPE" speedFactor="1.00" vaporized=""/>
    <tripinfo id="81" depart="389.00" departLane="left0A0_0" departPos="5.10" departSpeed="0.00" departDelay="0.00" arrival="444.00" arrivalLane="A0bottom0_0" arrivalPos="286.40" arrivalSpeed="13.06" duration="55.00" routeLength="576.73" waitingTime="2.00" waitingCount="1" stopTime="0.00" timeLoss="12.45" rerouteNo="0" devices="tripinfo_81" vType="DEFAULT_VEHTYPE" speedFactor="1.01" vaporized=""/>
    <tripinfo id="68" depart="337.00" departLane="bottom1B0_0" departPos="5.10" departSpeed="0.00" departDelay="0.00" arrival="447.00" arrivalLane="D0bottom3_0" arrivalPos="286.40" arrivalSpeed="12.93" duration="110.00" routeLength="1161.43" waitingTime="2.00" waitingCount="2" stopTime="0.00" timeLoss="22.11" rerouteNo="0" devices="tripinfo_68" vType="DEFAULT_VEHTYPE" speedFactor="0.97" vaporized=""/>
    <tripinfo id="31" depart="135.00" departLane="bottom3D0_0" departPos="5.10" departSpeed="0.00" departDelay="0.00" arrival="448.00" arrivalLane="B3top1_0" arrivalPos="286.40" arrivalSpeed="13.69" duration="313.00" routeLength="2080.05" waitingTime="132.00" waitingCount="4" stopTime="0.00" timeLoss="166.88" rerouteNo="0" devices="tripinfo_31" vType="DEFAULT_VEHTYPE" speedFactor="1.03" vaporized=""/>
    <tripinfo id="60" depart="292.00" departLane="top1B3_0" departPos="5.10" departSpeed="0.00" departDelay="0.00" arrival="450.00" arrivalLane="A2left2_1" arrivalPos="286.40" arrivalSpeed="14.17" duration="158.00" routeLength="1179.77" waitingTime="53.00" waitingCount="3" stopTime="0.00" timeLoss="77.61" rerouteNo="0" devices="tripinfo_60" vType="DEFAULT_VEHTYPE" speedFactor="1.07" vaporized=""/>
    <tripinfo id="15" depart="63.00" departLane="bottom3D0_0" departPos="5.10" departSpeed="0.00" departDelay="0.00" arrival="451.00" arrivalLane="A2left2_0" arrivalPos="286.40" arrivalSpeed="12.12" duration="388.00" routeLength="2095.69" waitingTime="186.00" waitingCount="4" stopTime="0.00" timeLoss="225.77" rerouteNo="0" devices="tripinfo_15" vType="DEFAULT_VEHTYPE" speedFactor="0.94" vaporized=""/>
    <tripinfo id="79" depart="377.00" departLane="bottom3D0_0" departPos="5.10" departSpeed="0.00" departDelay="0.00" arrival="457.00" arrivalLane="D1right1_0" arrivalPos="286.40" arrivalSpeed="14.57" duration="80.00" routeLength="876.90" waitingTime="2.00" waitingCount="2" stopTime="0.00" timeLoss="19.39" rerouteNo="0" devices="tripinfo_79" vType="DEFAULT_VEHTYPE" speedFactor="1.06" vaporized=""/>
    <tripinfo id="32" depart="135.00" departLane="right2D2_0" departPos="5.10" departSpeed="0.00" departDelay="0.00" arrival="476.00" arrivalLane="A0bottom0_0" arrivalPos="286.40" arrivalSpeed="15.84" duration="341.00" routeLength="2095.69" waitingTime="153.00" waitingCount="6" stopTime="0.00" timeLoss="210.25" rerouteNo="0" devices="tripinfo_32" vType="DEFAULT_VEHTYPE" speedFactor="1.16" vaporized=""/>
    <tripinfo id="58" depart="279.00" departLane="top3D3_0" departPos="5.10" departSpeed="0.00" departDelay="0.00" arrival="483.00" arrivalLane="D3top3_0" arrivalPos="286.40" arrivalSpeed="11.71" duration="204.00" routeLength="1748.75" waitingTime="33.00" waitingCount="2" stopTime="0.00" timeLoss="60.44" rerouteNo="0" devices="tripinfo_58" vType="DEFAULT_VEHTYPE" speedFactor="0.90" vaporized=""/>
    <tripinfo id="86" depart="427.00" departLane="left0A0_0" departPos="5.10" departSpeed="0.00" departDelay="0.00" arrival="485.00" arrivalLane="A0bottom0_0" arrivalPos="286.40" arrivalSpeed="11.71" duration="58.00" routeLength="576.73" waitingTime="1.00" waitingCount="1" stopTime="0.00" timeLoss="11.12" rerouteNo="0" devices="tripinfo_86" vType="DEFAULT_VEHTYPE" speedFactor="0.90" vaporized=""/>
    <tripinfo id="34" depart="138.00" departLane="bottom3D0_0" departPos="5.10" departSpeed="0.00" departDelay="2.00" arrival="487.00" arrivalLane="D3right3_0" arrivalPos="286.40" arrivalSpeed="13.41" duration="349.00" routeLength="1477.24" waitingTime="213.00" waitingCount="4" stopTime="0.00" timeLoss="243.70" rerouteNo="0" devices="tripinfo_34" vType="DEFAULT_VEHTYPE" speedFactor="1.02" vaporized=""/>
    <tripinfo id="76" depart="372.00" departLane="bottom3D0_0" departPos="5.10" departSpeed="0.00" departDelay="0.00" arrival="488.00" arrivalLane="B0bottom1_0" arrivalPos="286.40" arrivalSpeed="11.95" duration="116.00" routeLength="1197.66" waitingTime="1.00" waitingCount="1" stopTime="0.00" timeLoss="18.31" rerouteNo="0" devices="tripinfo_76" vType="DEFAULT_VEHTYPE" speedFactor="0.89" vaporized=""/>
    <tripinfo id="57" depart="264.00" departLane="top0A3_0" departPos="5.10" departSpeed="0.00" departDelay="1.00" arrival="489.00" arrivalLane="C3top2_0" arrivalPos="286.40" arrivalSpeed="11.95" duration="225.00" routeLength="1197.66" waitingTime="108.00" waitingCount="2" stopTime="0.00" timeLoss="125.87" rerouteNo="0" devices="tripinfo_57" vType="DEFAULT_VEHTYPE" speedFactor="0.88" vaporized=""/>
    <tripinfo id="46" depart="204.00" departLane="bottom3D0_0" departPos="5.10" departSpeed="0.00" departDelay="0.00" arrival="493.00" arrivalLane="D3right3_0" arrivalPos="286.40" arrivalSpeed="13.15" duration="289.00" routeLength="1477.24" waitingTime="155.00" waitingCount="3" stopTime="0.00" timeLoss="184.92" rerouteNo="0" devices="tripinfo_46" vType="DEFAULT_VEHTYPE" speedFactor="1.03" vaporized=""/>
    <tripinfo id="38" depart="149.00" departLane="right0D0_0" departPos="5.10" departSpeed="0.00" departDelay="0.00" arrival="508.00" arrivalLane="A3left3_0" arrivalPos="286.40" arrivalSpeed="15.01" duration="359.00" routeLength="2382.93" waitingTime="141.00" waitingCount="6" stopTime="0.00" timeLoss="199.62" rerouteNo="0" devices="tripinfo_38" vType="DEFAULT_VEHTYPE" speedFactor="1.09" vaporized=""/>
    <tripinfo id="75" depart="371.00" departLane="top0A3_0" departPos="5.10" departSpeed="0.00" departDelay="0.00" arrival="510.00" arrivalLane="A0left0_0" arrivalPos="286.40" arrivalSpeed="13.90" duration="139.00" routeLength="1477.24" waitingTime="15.00" waitingCount="2" stopTime="0.00" timeLoss="34.16" rerouteNo="0" devices="tripinfo_75" vType="DEFAULT_VEHTYPE" speedFactor="1.03" vaporized=""/>
    <tripinfo id="65" depart="314.00" departLane="bottom2C0_0" departPos="5.10" departSpeed="0.00" departDelay="0.00" arrival="511.00" arrivalLane="D2right2_0" arrivalPos="286.40" arrivalSpeed="12.79" duration="197.00" routeLength="1479.94" waitingTime="61.00" waitingCount="3" stopTime="0.00" timeLoss="81.13" rerouteNo="0" devices="tripinfo_65" vType="DEFAULT_VEHTYPE" speedFactor="0.93" vaporized=""/>
    <tripinfo id="63" depart="310.00" departLane="left3A3_0" departPos="5.10" departSpeed="0.00" departDelay="0.00" arrival="519.00" arrivalLane="D3right3_0" arrivalPos="286.40" arrivalSpeed="13.51" duration="209.00" routeLength="1495.58" waitingTime="75.00" waitingCount="3" stopTime="0.00" timeLoss="100.69" rerouteNo="0" devices="tripinfo_63" vType="DEFAULT_VEHTYPE" speedFactor="1.00" vaporized=""/>
    <tripinfo id="89" depart="431.00" departLane="left1A1_0" departPos="5.10" departSpeed="0.00" departDelay="0.00" arrival="519.00" arrivalLane="A0bottom0_0" arrivalPos="286.40" arrivalSpeed="13.40" duration="88.00" routeLength="879.60" waitingTime="6.00" waitingCount="2" stopTime="0.00" timeLoss="24.41" rerouteNo="0" devices="tripinfo_89" vType="DEFAULT_VEHTYPE" speedFactor="1.01" vaporized=""/>
    <tripinfo id="83" depart="396.00" departLane="left2A2_0" departPos="5.10" departSpeed="0.00" departDelay="0.00" arrival="522.00" arrivalLane="A3left3_0" arrivalPos="286.40" arrivalSpeed="13.62" duration="126.00" routeLength="894.86" waitingTime="48.00" waitingCount="1" stopTime="0.00" timeLoss="61.15" rerouteNo="0" devices="tripinfo_83" vType="DEFAULT_VEHTYPE" speedFactor="1.02" vaporized=""/>
    <tripinfo id="98" depart="474.00" departLane="right3D3_0" departPos="5.10" departSpeed="0.00" departDelay="0.00" arrival="534.00" arrivalLane="D3top3_0" arrivalPos="286.40" arrivalSpeed="9.97" duration="60.00" routeLength="576.73" waitingTime="0.00" waitingCount="0" stopTime="0.00" timeLoss="6.85" rerouteNo="0" devices="tripinfo_98" vType="DEFAULT_VEHTYPE" speedFactor="0.80" vaporized=""/>
    <tripinfo id="36" depart="138.00" departLane="left1A1_0" departPos="5.10" departSpeed="0.00" departDelay="0.00" arrival="541.00" arrivalLane="D3top3_0" arrivalPos="286.40" arrivalSpeed="11.83" duration="403.00" routeLength="2095.69" waitingTime="195.00" waitingCount="5" stopTime="0.00" timeLoss="237.29" rerouteNo="0" devices="tripinfo_36" vType="DEFAULT_VEHTYPE" speedFactor="0.92" vaporized=""/>
    <tripinfo id="59" depart="279.00" departLane="right1D1_0" departPos="5.10" departSpeed="0.00" departDelay="0.00" arrival="550.00" arrivalLane="A0left0_0" arrivalPos="286.40" arrivalSpeed="12.52" duration="271.00" routeLength="1782.59" waitingTime="107.00" waitingCount="4" stopTime="0.00" timeLoss="137.86" rerouteNo="0" devices="tripinfo_59" vType="DEFAULT_VEHTYPE" speedFactor="0.97" vaporized=""/>