<?xml version="1.0" encoding="UTF-8"?>

<!-- generated on 12/19/21 18:03:27 by Eclipse SUMO sumo Version 1.7.0
<configuration xmlns:xsi="http://www.w3.org/2001/XMLSchema-instance" xsi:noNamespaceSchemaLocation="http://sumo.dlr.de/xsd/sumoConfiguration.xsd">

    <input>
        <net-file value="C:\Users\longs\Desktop\RESCO-main\environments\grid4x4\grid4x4.net.xml"/>
        <route-files value="C:\Users\longs\Desktop\RESCO-main\environments\grid4x4\grid4x4_42.rou.xml"/>
    </input>

    <output>
        <tripinfo-output value="C:\Users\longs\Desktop\RESCO-main\logs\IDQN-tr1-grid4x4-0-drqlong-delaydiff_pressure09\tripinfo_42.xml"/>
        <tripinfo-output.write-unfinished value="true"/>
    </output>

    <processing>
        <time-to-teleport value="-1"/>
    </processing>

    <report>
        <no-warnings value="true"/>
        <no-step-log value="true"/>
    </report>

    <traci_server>
        <remote-port value="58398"/>
    </traci_server>

    <random_number>
        <random value="true"/>
    </random_number>

</configuration>
-->

<tripinfos xmlns:xsi="http://www.w3.org/2001/XMLSchema-instance" xsi:noNamespaceSchemaLocation="http://sumo.dlr.de/xsd/tripinfo_file.xsd">
    <tripinfo id="2" depart="5.00" departLane="right3D3_0" departPos="5.10" departSpeed="0.00" departDelay="0.00" arrival="97.00" arrivalLane="D2right2_0" arrivalPos="286.40" arrivalSpeed="14.24" duration="92.00" routeLength="894.86" waitingTime="19.00" waitingCount="1" stopTime="0.00" timeLoss="31.70" rerouteNo="0" devices="tripinfo_2" vType="DEFAULT_VEHTYPE" speedFactor="1.09" vaporized=""/>
    <tripinfo id="3" depart="15.00" departLane="right1D1_0" departPos="5.10" departSpeed="0.00" departDelay="0.00" arrival="107.00" arrivalLane="D0right0_0" arrivalPos="286.40" arrivalSpeed="12.54" duration="92.00" routeLength="894.86" waitingTime="7.00" waitingCount="1" stopTime="0.00" timeLoss="21.12" rerouteNo="0" devices="tripinfo_3" vType="DEFAULT_VEHTYPE" speedFactor="0.93" vaporized=""/>
    <tripinfo id="19" depart="96.00" departLane="left0A0_0" departPos="5.10" departSpeed="0.00" departDelay="0.00" arrival="150.00" arrivalLane="A0bottom0_0" arrivalPos="286.40" arrivalSpeed="14.11" duration="54.00" routeLength="576.73" waitingTime="1.00" waitingCount="1" stopTime="0.00" timeLoss="12.13" rerouteNo="0" devices="tripinfo_19" vType="DEFAULT_VEHTYPE" speedFactor="1.02" vaporized=""/>
    <tripinfo id="12" depart="50.00" departLane="bottom0A0_0" departPos="5.10" departSpeed="0.00" departDelay="0.00" arrival="153.00" arrivalLane="C0bottom2_0" arrivalPos="286.40" arrivalSpeed="12.76" duration="103.00" routeLength="1161.43" waitingTime="2.00" waitingCount="2" stopTime="0.00" timeLoss="17.31" rerouteNo="0" devices="tripinfo_12" vType="DEFAULT_VEHTYPE" speedFactor="1.00" vaporized=""/>
    <tripinfo id="4" depart="30.00" departLane="left2A2_0" departPos="5.10" departSpeed="0.00" departDelay="0.00" arrival="156.00" arrivalLane="B0bottom1_0" arrivalPos="286.40" arrivalSpeed="16.48" duration="126.00" routeLength="1479.94" waitingTime="14.00" waitingCount="2" stopTime="0.00" timeLoss="36.84" rerouteNo="0" devices="tripinfo_4" vType="DEFAULT_VEHTYPE" speedFactor="1.21" vaporized=""/>
    <tripinfo id="11" depart="46.00" departLane="bottom3D0_0" departPos="5.10" departSpeed="0.00" departDelay="0.00" arrival="161.00" arrivalLane="C0bottom2_0" arrivalPos="286.40" arrivalSpeed="12.67" duration="115.00" routeLength="894.86" waitingTime="27.00" waitingCount="2" stopTime="0.00" timeLoss="45.81" rerouteNo="0" devices="tripinfo_11" vType="DEFAULT_VEHTYPE" speedFactor="0.96" vaporized=""/>
    <tripinfo id="1" depart="3.00" departLane="bottom2C0_0" departPos="5.10" departSpeed="0.00" departDelay="0.00" arrival="179.00" arrivalLane="C3top2_0" arrivalPos="286.40" arrivalSpeed="13.50" duration="176.00" routeLength="1495.58" waitingTime="49.00" waitingCount="2" stopTime="0.00" timeLoss="68.47" rerouteNo="0" devices="tripinfo_1" vType="DEFAULT_VEHTYPE" speedFactor="1.01" vaporized=""/>
    <tripinfo id="0" depart="1.00" departLane="right1D1_0" departPos="5.10" departSpeed="0.00" departDelay="0.00" arrival="192.00" arrivalLane="D1right1_0" arrivalPos="286.40" arrivalSpeed="11.93" duration="191.00" routeLength="1748.75" waitingTime="16.00" waitingCount="5" stopTime="0.00" timeLoss="46.40" rerouteNo="0" devices="tripinfo_0" vType="DEFAULT_VEHTYPE" speedFactor="0.89" vaporized=""/>
    <tripinfo id="9" depart="46.00" departLane="right1D1_0" departPos="5.10" departSpeed="0.00" departDelay="0.00" arrival="207.00" arrivalLane="D0bottom3_0" arrivalPos="286.40" arrivalSpeed="15.18" duration="161.00" routeLength="895.01" waitingTime="86.00" waitingCount="2" stopTime="0.00" timeLoss="102.47" rerouteNo="0" devices="tripinfo_9" vType="DEFAULT_VEHTYPE" speedFactor="1.13" vaporized=""/>
    <tripinfo id="5" depart="32.00" departLane="left1A1_0" departPos="5.10" departSpeed="0.00" departDelay="0.00" arrival="208.00" arrivalLane="C0bottom2_0" arrivalPos="286.40" arrivalSpeed="13.68" duration="176.00" routeLength="1479.94" waitingTime="40.00" waitingCount="4" stopTime="0.00" timeLoss="73.53" rerouteNo="0" devices="tripinfo_5" vType="DEFAULT_VEHTYPE" speedFactor="1.05" vaporized=""/>
    <tripinfo id="23" depart="122.00" departLane="left0A0_0" departPos="5.10" departSpeed="0.00" departDelay="0.00" arrival="215.00" arrivalLane="B0bottom1_0" arrivalPos="286.40" arrivalSpeed="13.17" duration="93.00" routeLength="876.90" waitingTime="14.00" waitingCount="1" stopTime="0.00" timeLoss="25.75" rerouteNo="0" devices="tripinfo_23" vType="DEFAULT_VEHTYPE" speedFactor="0.95" vaporized=""/>
    <tripinfo id="10" depart="46.00" departLane="bottom1B0_0" departPos="5.10" departSpeed="0.00" departDelay="0.00" arrival="228.00" arrivalLane="A3top0_0" arrivalPos="286.40" arrivalSpeed="14.83" duration="182.00" routeLength="1782.59" waitingTime="28.00" waitingCount="4" stopTime="0.00" timeLoss="61.35" rerouteNo="0" devices="tripinfo_10" vType="DEFAULT_VEHTYPE" speedFactor="1.08" vaporized=""/>
    <tripinfo id="16" depart="80.00" departLane="right2D2_0" departPos="5.10" departSpeed="0.00" departDelay="0.00" arrival="228.00" arrivalLane="A3top0_1" arrivalPos="286.40" arrivalSpeed="15.49" duration="148.00" routeLength="1780.11" waitingTime="8.00" waitingCount="2" stopTime="0.00" timeLoss="34.96" rerouteNo="0" devices="tripinfo_16" vType="DEFAULT_VEHTYPE" speedFactor="1.14" vaporized=""/>
    <tripinfo id="7" depart="39.00" departLane="bottom1B0_0" departPos="5.10" departSpeed="0.00" departDelay="0.00" arrival="238.00" arrivalLane="B3top1_0" arrivalPos="286.40" arrivalSpeed="13.38" duration="199.00" routeLength="1495.58" waitingTime="67.00" waitingCount="4" stopTime="0.00" timeLoss="95.59" rerouteNo="0" devices="tripinfo_7" vType="DEFAULT_VEHTYPE" speedFactor="1.04" vaporized=""/>
    <tripinfo id="8" depart="42.00" departLane="bottom1B0_0" departPos="5.10" departSpeed="0.00" departDelay="2.00" arrival="238.00" arrivalLane="A3left3_0" arrivalPos="286.40" arrivalSpeed="14.39" duration="196.00" routeLength="1795.52" waitingTime="34.00" waitingCount="5" stopTime="0.00" timeLoss="70.62" rerouteNo="0" devices="tripinfo_8" vType="DEFAULT_VEHTYPE" speedFactor="1.04" vaporized=""/>
    <tripinfo id="13" depart="65.00" departLane="left2A2_0" departPos="5.10" departSpeed="0.00" departDelay="0.00" arrival="239.00" arrivalLane="A2left2_0" arrivalPos="286.40" arrivalSpeed="13.00" duration="174.00" routeLength="1748.75" waitingTime="13.00" waitingCount="3" stopTime="0.00" timeLoss="37.77" rerouteNo="0" devices="tripinfo_13" vType="DEFAULT_VEHTYPE" speedFactor="0.95" vaporized=""/>
    <tripinfo id="17" depart="91.00" departLane="right3D3_0" departPos="5.10" departSpeed="0.00" departDelay="0.00" arrival="240.00" arrivalLane="D0bottom3_0" arrivalPos="286.40" arrivalSpeed="12.44" duration="149.00" routeLength="1495.35" waitingTime="18.00" waitingCount="2" stopTime="0.00" timeLoss="36.03" rerouteNo="0" devices="tripinfo_17" vType="DEFAULT_VEHTYPE" speedFactor="0.96" vaporized=""/>
    <tripinfo id="14" depart="72.00" departLane="right3D3_0" departPos="5.10" departSpeed="0.00" departDelay="0.00" arrival="247.00" arrivalLane="A2left2_0" arrivalPos="286.40" arrivalSpeed="15.06" duration="175.00" routeLength="1782.59" waitingTime="27.00" waitingCount="4" stopTime="0.00" timeLoss="57.48" rerouteNo="0" devices="tripinfo_14" vType="DEFAULT_VEHTYPE" speedFactor="1.10" vaporized=""/>
    <tripinfo id="30" depart="179.00" departLane="bottom3D0_0" departPos="5.10" departSpeed="0.00" departDelay="0.00" arrival="264.00" arrivalLane="D1right1_0" arrivalPos="286.40" arrivalSpeed="14.94" duration="85.00" routeLength="876.90" waitingTime="7.00" waitingCount="2" stopTime="0.00" timeLoss="26.01" rerouteNo="0" devices="tripinfo_30" vType="DEFAULT_VEHTYPE" speedFactor="1.08" vaporized=""/>
    <tripinfo id="39" depart="217.00" departLane="right3D3_0" departPos="5.10" departSpeed="0.00" departDelay="0.00" arrival="264.00" arrivalLane="D3top3_0" arrivalPos="286.40" arrivalSpeed="14.60" duration="47.00" routeLength="576.73" waitingTime="0.00" waitingCount="0" stopTime="0.00" timeLoss="6.16" rerouteNo="0" devices="tripinfo_39" vType="DEFAULT_VEHTYPE" speedFactor="1.05" vaporized=""/>
    <tripinfo id="6" depart="39.00" departLane="top0A3_0" departPos="5.10" departSpeed="0.00" departDelay="0.00" arrival="267.00" arrivalLane="D2right2_0" arrivalPos="286.40" arrivalSpeed="15.65" duration="228.00" routeLength="1795.52" waitingTime="81.00" waitingCount="3" stopTime="0.00" timeLoss="113.51" rerouteNo="0" devices="tripinfo_6" vType="DEFAULT_VEHTYPE" speedFactor="1.14" vaporized=""/>
    <tripinfo id="21" depart="108.00" departLane="bottom2C0_0" departPos="5.10" departSpeed="0.00" departDelay="0.00" arrival="271.00" arrivalLane="D2right2_0" arrivalPos="286.40" arrivalSpeed="13.31" duration="163.00" routeLength="1479.94" waitingTime="32.00" waitingCount="3" stopTime="0.00" timeLoss="56.95" rerouteNo="0" devices="tripinfo_21" vType="DEFAULT_VEHTYPE" speedFactor="1.02" vaporized=""/>
    <tripinfo id="15" depart="75.00" departLane="right3D3_0" departPos="5.10" departSpeed="0.00" departDelay="1.00" arrival="283.00" arrivalLane="A3left3_0" arrivalPos="286.40" arrivalSpeed="11.89" duration="208.00" routeLength="1495.58" waitingTime="59.00" waitingCount="3" stopTime="0.00" timeLoss="82.78" rerouteNo="0" devices="tripinfo_15" vType="DEFAULT_VEHTYPE" speedFactor="0.87" vaporized=""/>
    <tripinfo id="22" depart="109.00" departLane="top0A3_0" departPos="5.10" departSpeed="0.00" departDelay="0.00" arrival="298.00" arrivalLane="D3right3_0" arrivalPos="286.40" arrivalSpeed="13.75" duration="189.00" routeLength="1495.35" waitingTime="59.00" waitingCount="4" stopTime="0.00" timeLoss="88.15" rerouteNo="0" devices="tripinfo_22" vType="DEFAULT_VEHTYPE" speedFactor="1.08" vaporized=""/>
    <tripinfo id="29" depart="177.00" departLane="left1A1_0" departPos="5.10" departSpeed="0.00" departDelay="0.00" arrival="300.00" arrivalLane="A3top0_0" arrivalPos="286.40" arrivalSpeed="12.80" duration="123.00" routeLength="1195.18" waitingTime="14.00" waitingCount="2" stopTime="0.00" timeLoss="32.10" rerouteNo="0" devices="tripinfo_29" vType="DEFAULT_VEHTYPE" speedFactor="0.96" vaporized=""/>
    <tripinfo id="35" depart="203.00" departLane="left0A0_0" departPos="5.10" departSpeed="0.00" departDelay="0.00" arrival="307.00" arrivalLane="B0bottom1_0" arrivalPos="286.40" arrivalSpeed="12.66" duration="104.00" routeLength="876.90" waitingTime="24.00" waitingCount="2" stopTime="0.00" timeLoss="39.14" rerouteNo="0" devices="tripinfo_35" vType="DEFAULT_VEHTYPE" speedFactor="0.99" vaporized=""/>
    <tripinfo id="20" depart="103.00" departLane="right1D1_0" departPos="5.10" departSpeed="0.00" departDelay="0.00" arrival="310.00" arrivalLane="B3top1_0" arrivalPos="286.40" arrivalSpeed="12.98" duration="207.00" routeLength="1780.11" waitingTime="46.00" waitingCount="4" stopTime="0.00" timeLoss="75.29" rerouteNo="0" devices="tripinfo_20" vType="DEFAULT_VEHTYPE" speedFactor="0.98" vaporized=""/>
    <tripinfo id="18" depart="95.00" departLane="left3A3_0" departPos="5.10" departSpeed="0.00" departDelay="0.00" arrival="327.00" arrivalLane="C0bottom2_0" arrivalPos="286.40" arrivalSpeed="11.61" duration="232.00" routeLength="2080.28" waitingTime="31.00" waitingCount="4" stopTime="0.00" timeLoss="64.93" rerouteNo="0" devices="tripinfo_18" vType="DEFAULT_VEHTYPE" speedFactor="0.90" vaporized=""/>
    <tripinfo id="45" depart="242.00" departLane="top2C3_0" departPos="5.10" departSpeed="0.00" departDelay="0.00" arrival="329.00" arrivalLane="B3top1_0" arrivalPos="286.40" arrivalSpeed="12.00" duration="87.00" routeLength="858.56" waitingTime="1.00" waitingCount="1" stopTime="0.00" timeLoss="13.69" rerouteNo="0" devices="tripinfo_45" vType="DEFAULT_VEHTYPE" speedFactor="0.88" vaporized=""/>
    <tripinfo id="28" depart="177.00" departLane="top1B3_0" departPos="5.10" departSpeed="0.00" departDelay="0.00" arrival="331.00" arrivalLane="D3right3_0" arrivalPos="286.40" arrivalSpeed="11.62" duration="154.00" routeLength="1195.18" waitingTime="34.00" waitingCount="2" stopTime="0.00" timeLoss="53.66" rerouteNo="0" devices="tripinfo_28" vType="DEFAULT_VEHTYPE" speedFactor="0.86" vaporized=""/>
    <tripinfo id="25" depart="132.00" departLane="left0A0_0" departPos="5.10" departSpeed="0.00" departDelay="0.00" arrival="337.00" arrivalLane="D1right1_0" arrivalPos="286.40" arrivalSpeed="14.41" duration="205.00" routeLength="1782.59" waitingTime="52.00" waitingCount="5" stopTime="0.00" timeLoss="87.27" rerouteNo="0" devices="tripinfo_25" vType="DEFAULT_VEHTYPE" speedFactor="1.11" vaporized=""/>
    <tripinfo id="42" depart="235.00" departLane="bottom1B0_0" departPos="5.10" departSpeed="0.00" departDelay="0.00" arrival="340.00" arrivalLane="A0left0_0" arrivalPos="286.40" arrivalSpeed="12.97" duration="105.00" routeLength="895.01" waitingTime="21.00" waitingCount="2" stopTime="0.00" timeLoss="37.84" rerouteNo="0" devices="tripinfo_42" vType="DEFAULT_VEHTYPE" speedFactor="0.97" vaporized=""/>
    <tripinfo id="27" depart="176.00" departLane="left0A0_0" departPos="5.10" departSpeed="0.00" departDelay="0.00" arrival="342.00" arrivalLane="A0left0_1" arrivalPos="286.40" arrivalSpeed="13.03" duration="166.00" routeLength="1745.91" waitingTime="9.00" waitingCount="2" stopTime="0.00" timeLoss="37.93" rerouteNo="0" devices="tripinfo_27" vType="DEFAULT_VEHTYPE" speedFactor="1.00" vaporized=""/>
    <tripinfo id="24" depart="122.00" departLane="right3D3_0" departPos="5.10" departSpeed="0.00" departDelay="0.00" arrival="348.00" arrivalLane="D0bottom3_0" arrivalPos="286.40" arrivalSpeed="14.62" duration="226.00" routeLength="1495.35" waitingTime="94.00" waitingCount="4" stopTime="0.00" timeLoss="124.60" rerouteNo="0" devices="tripinfo_24" vType="DEFAULT_VEHTYPE" speedFactor="1.07" vaporized=""/>
    <tripinfo id="46" depart="251.00" departLane="right1D1_0" departPos="5.10" departSpeed="0.00" departDelay="0.00" arrival="350.00" arrivalLane="D0bottom3_0" arrivalPos="286.40" arrivalSpeed="14.10" duration="99.00" routeLength="895.01" waitingTime="19.00" waitingCount="2" stopTime="0.00" timeLoss="38.73" rerouteNo="0" devices="tripinfo_46" vType="DEFAULT_VEHTYPE" speedFactor="1.09" vaporized=""/>
    <tripinfo id="31" depart="180.00" departLane="left1A1_0" departPos="5.10" departSpeed="0.00" departDelay="0.00" arrival="353.00" arrivalLane="C0bottom2_0" arrivalPos="286.40" arrivalSpeed="10.78" duration="173.00" routeLength="1479.94" waitingTime="20.00" waitingCount="2" stopTime="0.00" timeLoss="45.73" rerouteNo="0" devices="tripinfo_31" vType="DEFAULT_VEHTYPE" speedFactor="0.85" vaporized=""/>
    <tripinfo id="47" depart="265.00" departLane="bottom2C0_0" departPos="5.10" departSpeed="0.00" departDelay="0.00" arrival="360.00" arrivalLane="D0right0_0" arrivalPos="286.40" arrivalSpeed="12.52" duration="95.00" routeLength="879.60" waitingTime="11.00" waitingCount="2" stopTime="0.00" timeLoss="27.52" rerouteNo="0" devices="tripinfo_47" vType="DEFAULT_VEHTYPE" speedFactor="0.95" vaporized=""/>
    <tripinfo id="50" depart="276.00" departLane="top0A3_0" departPos="5.10" departSpeed="0.00" departDelay="0.00" arrival="360.00" arrivalLane="B3top1_0" arrivalPos="286.40" arrivalSpeed="13.95" duration="84.00" routeLength="894.86" waitingTime="6.00" waitingCount="1" stopTime="0.00" timeLoss="18.16" rerouteNo="0" devices="tripinfo_50" vType="DEFAULT_VEHTYPE" speedFactor="1.01" vaporized=""/>
    <tripinfo id="41" depart="226.00" departLane="top0A3_0" departPos="5.10" departSpeed="0.00" departDelay="0.00" arrival="366.00" arrivalLane="A0bottom0_0" arrivalPos="286.40" arrivalSpeed="16.57" duration="140.00" routeLength="1495.58" waitingTime="25.00" waitingCount="3" stopTime="0.00" timeLoss="50.38" rerouteNo="0" devices="tripinfo_41" vType="DEFAULT_VEHTYPE" speedFactor="1.21" vaporized=""/>
    <tripinfo id="26" depart="138.00" departLane="left1A1_0" departPos="5.10" departSpeed="0.00" departDelay="0.00" arrival="370.00" arrivalLane="D3top3_0" arrivalPos="286.40" arrivalSpeed="12.91" duration="232.00" routeLength="2095.69" waitingTime="40.00" waitingCount="5" stopTime="0.00" timeLoss="74.49" rerouteNo="0" devices="tripinfo_26" vType="DEFAULT_VEHTYPE" speedFactor="0.96" vaporized=""/>
    <tripinfo id="32" depart="188.00" departLane="top1B3_0" departPos="5.10" departSpeed="0.00" departDelay="0.00" arrival="375.00" arrivalLane="C0bottom2_0" arrivalPos="286.40" arrivalSpeed="12.78" duration="187.00" routeLength="1782.59" waitingTime="30.00" waitingCount="3" stopTime="0.00" timeLoss="54.14" rerouteNo="0" devices="tripinfo_32" vType="DEFAULT_VEHTYPE" speedFactor="0.97" vaporized=""/>
    <tripinfo id="33" depart="192.00" departLane="top0A3_0" departPos="5.10" departSpeed="0.00" departDelay="0.00" arrival="382.00" arrivalLane="A3top0_0" arrivalPos="286.40" arrivalSpeed="12.43" duration="190.00" routeLength="1745.91" waitingTime="19.00" waitingCount="3" stopTime="0.00" timeLoss="48.22" rerouteNo="0" devices="tripinfo_33" vType="DEFAULT_VEHTYPE" speedFactor="0.91" vaporized=""/>
    <tripinfo id="34" depart="192.00" departLane="left1A1_0" departPos="5.10" departSpeed="0.00" departDelay="0.00" arrival="390.00" arrivalLane="D2right2_0" arrivalPos="286.40" arrivalSpeed="13.44" duration="198.00" routeLength="1782.59" waitingTime="34.00" waitingCount="4" stopTime="0.00" timeLoss="64.93" rerouteNo="0" devices="tripinfo_34" vType="DEFAULT_VEHTYPE" speedFactor="0.97" vaporized=""/>
    <tripinfo id="54" depart="298.00" departLane="right0D0_0" departPos="5.10" departSpeed="0.00" departDelay="0.00" arrival="409.00" arrivalLane="C0bottom2_0" arrivalPos="286.40" arrivalSpeed="13.29" duration="111.00" routeLength="897.72" waitingTime="30.00" waitingCount="2" stopTime="0.00" timeLoss="47.62" rerouteNo="0" devices="tripinfo_54" vType="DEFAULT_VEHTYPE" speedFactor="1.04" vaporized=""/>
    <tripinfo id="51" depart="277.00" departLane="left2A2_0" departPos="5.10" departSpeed="0.00" departDelay="0.00" arrival="417.00" arrivalLane="D2right2_0" arrivalPos="286.40" arrivalSpeed="14.99" duration="140.00" routeLength="1495.58" waitingTime="17.00" waitingCount="3" stopTime="0.00" timeLoss="43.92" rerouteNo="0" devices="tripinfo_51" vType="DEFAULT_VEHTYPE" speedFactor="1.13" vaporized=""/>
    <tripinfo id="66" depart="345.00" departLane="bottom0A0_0" departPos="5.10" departSpeed="0.00" departDelay="0.00" arrival="422.00" arrivalLane="B0bottom1_0" arrivalPos="286.40" arrivalSpeed="13.22" duration="77.00" routeLength="858.56" waitingTime="1.00" waitingCount="1" stopTime="0.00" timeLoss="14.58" rerouteNo="0" devices="tripinfo_66" vType="DEFAULT_VEHTYPE" speedFactor="1.01" vaporized=""/>
    <tripinfo id="68" depart="351.00" departLane="bottom1B0_0" departPos="5.10" departSpeed="0.00" departDelay="0.00" arrival="428.00" arrivalLane="A0left0_0" arrivalPos="286.40" arrivalSpeed="14.95" duration="77.00" routeLength="895.01" waitingTime="6.00" waitingCount="1" stopTime="0.00" timeLoss="16.98" rerouteNo="0" devices="tripinfo_68" vType="DEFAULT_VEHTYPE" speedFactor="1.09" vaporized=""/>
    <tripinfo id="72" depart="366.00" departLane="left2A2_0" departPos="5.10" departSpeed="0.00" departDelay="0.00" arrival="445.00" arrivalLane="A1left1_0" arrivalPos="286.40" arrivalSpeed="14.35" duration="79.00" routeLength="858.56" waitingTime="2.00" waitingCount="2" stopTime="0.00" timeLoss="18.82" rerouteNo="0" devices="tripinfo_72" vType="DEFAULT_VEHTYPE" speedFactor="1.05" vaporized=""/>
    <tripinfo id="43" depart="237.00" departLane="bottom3D0_0" departPos="5.10" departSpeed="0.00" departDelay="0.00" arrival="449.00" arrivalLane="D3top3_0" arrivalPos="286.40" arrivalSpeed="13.85" duration="212.00" routeLength="1495.58" waitingTime="74.00" waitingCount="4" stopTime="0.00" timeLoss="104.76" rerouteNo="0" devices="tripinfo_43" vType="DEFAULT_VEHTYPE" speedFactor="1.01" vaporized=""/>
    <tripinfo id="57" depart="306.00" departLane="bottom1B0_0" departPos="5.10" departSpeed="0.00" departDelay="0.00" arrival="453.00" arrivalLane="D1right1_0" arrivalPos="286.40" arrivalSpeed="12.48" duration="147.00" routeLength="1479.94" waitingTime="14.00" waitingCount="2" stopTime="0.00" timeLoss="35.76" rerouteNo="0" devices="tripinfo_57" vType="DEFAULT_VEHTYPE" speedFactor="0.97" vaporized=""/>
    <tripinfo id="58" depart="314.00" departLane="top0A3_0" departPos="5.10" departSpeed="0.00" departDelay="0.00" arrival="453.00" arrivalLane="A0bottom0_0" arrivalPos="286.40" arrivalSpeed="13.62" duration="139.00" routeLength="1495.58" waitingTime="19.00" waitingCount="1" stopTime="0.00" timeLoss="32.81" rerouteNo="0" devices="tripinfo_58" vType="DEFAULT_VEHTYPE" speedFactor="1.02" vaporized=""/>
    <tripinfo id="73" depart="369.00" departLane="top2C3_0" departPos="5.10" departSpeed="0.00" departDelay="0.00" arrival="458.00" arrivalLane="B3top1_0" arrivalPos="286.40" arrivalSpeed="10.65" duration="89.00" routeLength="858.56" waitingTime="1.00" waitingCount="1" stopTime="0.00" timeLoss="13.65" rerouteNo="0" devices="tripinfo_73" vType="DEFAULT_VEHTYPE" speedFactor="0.84" vaporized=""/>
    <tripinfo id="40" depart="220.00" departLane="right0D0_0" departPos="5.10" departSpeed="0.00" departDelay="0.00" arrival="470.00" arrivalLane="B3top1_1" arrivalPos="286.40" arrivalSpeed="15.33" duration="250.00" routeLength="2080.28" waitingTime="54.00" waitingCount="3" stopTime="0.00" timeLoss="114.80" rerouteNo="0" devices="tripinfo_40" vType="DEFAULT_VEHTYPE" speedFactor="1.12" vaporized=""/>
    <tripinfo id="53" depart="290.00" departLane="top0A3_0" departPos="5.10" departSpeed="0.00" departDelay="1.00" arrival="470.00" arrivalLane="A3top0_0" arrivalPos="286.40" arrivalSpeed="12.71" duration="180.00" routeLength="1745.91" waitingTime="11.00" waitingCount="5" stopTime="0.00" timeLoss="49.26" rerouteNo="0" devices="tripinfo_53" vType="DEFAULT_VEHTYPE" speedFactor="0.98" vaporized=""/>
    <tripinfo id="70" depart="359.00" departLane="right0D0_0" departPos="5.10" departSpeed="0.00" departDelay="0.00" arrival="470.00" arrivalLane="B0bottom1_0" arrivalPos="286.40" arrivalSpeed="12.58" duration="111.00" routeLength="1197.89" waitingTime="9.00" waitingCount="1" stopTime="0.00" timeLoss="20.15" rerouteNo="0" devices="tripinfo_70" vType="DEFAULT_VEHTYPE" speedFactor="0.96" vaporized=""/>
    <tripinfo id="37" depart="207.00" departLane="top3D3_0" departPos="5.10" departSpeed="0.00" departDelay="0.00" arrival="471.00" arrivalLane="A0left0_0" arrivalPos="286.40" arrivalSpeed="13.23" duration="264.00" routeLength="2380.45" waitingTime="57.00" waitingCount="5" stopTime="0.00" timeLoss="92.49" rerouteNo="0" devices="tripinfo_37" vType="DEFAULT_VEHTYPE" speedFactor="1.00" vaporized=""/>
    <tripinfo id="49" depart="270.00" departLane="bottom0A0_0" departPos="5.10" departSpeed="0.00" departDelay="0.00" arrival="471.00" arrivalLane="B3top1_0" arrivalPos="286.40" arrivalSpeed="12.49" duration="201.00" routeLength="1782.72" waitingTime="35.00" waitingCount="2" stopTime="0.00" timeLoss="62.38" rerouteNo="0" devices="tripinfo_49" vType="DEFAULT_VEHTYPE" speedFactor="0.94" vaporized=""/>
    <tripinfo id="48" depart="268.00" departLane="left0A0_0" departPos="5.10" departSpeed="0.00" departDelay="0.00" arrival="472.00" arrivalLane="D1right1_0" arrivalPos="286.40" arrivalSpeed="13.58" duration="204.00" routeLength="1782.59" waitingTime="46.00" waitingCount="3" stopTime="0.00" timeLoss="72.61" rerouteNo="0" devices="tripinfo_48" vType="DEFAULT_VEHTYPE" speedFactor="0.99" vaporized=""/>
    <tripinfo id="44" depart="242.00" departLane="left1A1_0" departPos="5.10" departSpeed="0.00" departDelay="0.00" arrival="479.00" arrivalLane="D0bottom3_0" arrivalPos="286.40" arrivalSpeed="9.81" duration="237.00" routeLength="1780.11" waitingTime="27.00" waitingCount="4" stopTime="0.00" timeLoss="56.32" rerouteNo="0" devices="tripinfo_44" vType="DEFAULT_VEHTYPE" speedFactor="0.72" vaporized=""/>
    <tripinfo id="55" depart="304.00" departLane="top1B3_0" departPos="5.10" departSpeed="0.00" departDelay="0.00" arrival="482.00" arrivalLane="D2right2_0" arrivalPos="286.40" arrivalSpeed="11.95" duration="178.00" routeLength="1495.35" waitingTime="26.00" waitingCount="3" stopTime="0.00" timeLoss="56.95" rerouteNo="0" devices="tripinfo_55" vType="DEFAULT_VEHTYPE" speedFactor="0.90" vaporized=""/>
    <tripinfo id="36" depart="204.00" departLane="bottom3D0_0" departPos="5.10" departSpeed="0.00" departDelay="0.00" arrival="484.00" arrivalLane="A3top0_0" arrivalPos="286.40" arrivalSpeed="12.70" duration="280.00" routeLength="2380.22" waitingTime="57.00" waitingCount="4" stopTime="0.00" timeLoss="98.23" rerouteNo="0" devices="tripinfo_36" vType="DEFAULT_VEHTYPE" speedFactor="0.95" vaporized=""/>
    <tripinfo id="56" depart="306.00" departLane="top2C3_0" departPos="5.10" departSpeed="0.00" departDelay="0.00" arrival="486.00" arrivalLane="A0bottom0_0" arrivalPos="286.40" arrivalSpeed="15.50" duration="180.00" routeLength="2082.76" waitingTime="19.00" waitingCount="4" stopTime="0.00" timeLoss="52.76" rerouteNo="0" devices="tripinfo_56" vType="DEFAULT_VEHTYPE" speedFactor="1.19" vaporized=""/>
    <tripinfo id="80" depart="405.00" departLane="right0D0_0" departPos="5.10" departSpeed="0.00" departDelay="0.00" arrival="489.00" arrivalLane="D1right1_0" arrivalPos="286.40" arrivalSpeed="12.76" duration="84.00" routeLength="858.56" waitingTime="2.00" waitingCount="2" stopTime="0.00" timeLoss="20.68" rerouteNo="0" devices="tripinfo_80" vType="DEFAULT_VEHTYPE" speedFactor="1.01" vaporized=""/>
    <tripinfo id="95" depart="440.00" departLane="right3D3_0" departPos="5.10" departSpeed="0.00" departDelay="0.00" arrival="490.00" arrivalLane="D3top3_0" arrivalPos="286.40" arrivalSpeed="12.72" duration="50.00" routeLength="576.73" waitingTime="0.00" waitingCount="0" stopTime="0.00" timeLoss="6.49" rerouteNo="0" devices="tripinfo_95" vType="DEFAULT_VEHTYPE" speedFactor="0.99" vaporized=""/>
    <tripinfo id="59" depart="315.00" departLane="bottom2C0_0" departPos="5.10" departSpeed="0.00" departDelay="0.00" arrival="492.00" arrivalLane="A1left1_0" arrivalPos="286.40" arrivalSpeed="11.34" duration="177.00" routeLength="1495.35" waitingTime="28.00" waitingCount="3" stopTime="0.00" timeLoss="54.26" rerouteNo="0" devices="tripinfo_59" vType="DEFAULT_VEHTYPE" speedFactor="0.89" vaporized=""/>
    <tripinfo id="52" depart="287.00" departLane="top0A3_0" departPos="5.10" departSpeed="0.00" departDelay="0.00" arrival="497.00" arrivalLane="C0bottom2_0" arrivalPos="286.40" arrivalSpeed="14.90" duration="210.00" routeLength="2080.05" waitingTime="38.00" waitingCount="4" stopTime="0.00" timeLoss="74.05" rerouteNo="0" devices="tripinfo_52" vType="DEFAULT_VEHTYPE" speedFactor="1.11" vaporized=""/>
    <tripinfo id="61" depart="326.00" departLane="right2D2_0" departPos="5.10" departSpeed="0.00" departDelay="0.00" arrival="501.00" arrivalLane="A2left2_0" arrivalPos="286.40" arrivalSpeed="12.74" duration="175.00" routeLength="1495.58" waitingTime="31.00" waitingCount="4" stopTime="0.00" timeLoss="58.59" rerouteNo="0" devices="tripinfo_61" vType="DEFAULT_VEHTYPE" speedFactor="0.93" vaporized=""/>
    <tripinfo id="67" depart="345.00" departLane="bottom1B0_0" departPos="5.10" departSpeed="0.00" departDelay="0.00" arrival="501.00" arrivalLane="D1right1_0" arrivalPos="286.40" arrivalSpeed="13.89" duration="156.00" routeLength="1479.94" waitingTime="25.00" waitingCount="3" stopTime="0.00" timeLoss="50.59" rerouteNo="0" devices="tripinfo_67" vType="DEFAULT_VEHTYPE" speedFactor="1.03" vaporized=""/>
    <tripinfo id="88" depart="430.00" departLane="bottom0A0_0" departPos="5.10" departSpeed="0.00" departDelay="0.00" arrival="509.00" arrivalLane="B0bottom1_0" arrivalPos="286.40" arrivalSpeed="13.32" duration="79.00" routeLength="858.56" waitingTime="1.00" waitingCount="1" stopTime="0.00" timeLoss="14.46" rerouteNo="0" devices="tripinfo_88" vType="DEFAULT_VEHTYPE" speedFactor="0.97" vaporized=""/>
    <tripinfo id="79" depart="400.00" departLane="left2A2_0" departPos="5.10" departSpeed="0.00" departDelay="0.00" arrival="515.00" arrivalLane="B3top1_0" arrivalPos="286.40" arrivalSpeed="12.25" duration="115.00" routeLength="1195.18" waitingTime="10.00" waitingCount="1" stopTime="0.00" timeLoss="22.91" rerouteNo="0" devices="tripinfo_79" vType="DEFAULT_VEHTYPE" speedFactor="0.94" vaporized=""/>
    <tripinfo id="93" depart="437.00" departLane="left3A3_0" departPos="5.10" departSpeed="0.00" departDelay="0.00" arrival="537.00" arrivalLane="A1left1_0" arrivalPos="286.40" arrivalSpeed="13.50" duration="100.00" routeLength="1161.43" waitingTime="1.00" waitingCount="1" stopTime="0.00" timeLoss="16.07" rerouteNo="0" devices="tripinfo_93" vType="DEFAULT_VEHTYPE" speedFactor="1.02" vaporized=""/>