<?xml version="1.0" encoding="UTF-8"?>

<!-- generated on 12/09/21 20:59:10 by Eclipse SUMO sumo Version 1.7.0
<configuration xmlns:xsi="http://www.w3.org/2001/XMLSchema-instance" xsi:noNamespaceSchemaLocation="http://sumo.dlr.de/xsd/sumoConfiguration.xsd">

    <input>
        <net-file value="C:\Users\longs\Desktop\RESCO-main\environments/cologne8/cologne8.net.xml"/>
        <route-files value="C:\Users\longs\Desktop\RESCO-main\environments/cologne8/cologne8.rou.xml"/>
    </input>

    <output>
        <tripinfo-output value="C:\Users\longs\Desktop\RESCO-main\logs\IDQN-tr1-cologne8-0-drqlong-delaydiff_pressure03\tripinfo_46.xml"/>
        <tripinfo-output.write-unfinished value="true"/>
    </output>

    <time>
        <begin value="25200"/>
        <end value="28800"/>
    </time>

    <processing>
        <time-to-teleport value="-1"/>
    </processing>

    <report>
        <no-warnings value="true"/>
        <no-step-log value="true"/>
    </report>

    <traci_server>
        <remote-port value="63811"/>
    </traci_server>

    <random_number>
        <random value="true"/>
    </random_number>

</configuration>
-->

<tripinfos xmlns:xsi="http://www.w3.org/2001/XMLSchema-instance" xsi:noNamespaceSchemaLocation="http://sumo.dlr.de/xsd/tripinfo_file.xsd">
    <tripinfo id="142890_415_0" depart="25218.00" departLane="-23283579#1_0" departPos="4.40" departSpeed="0.00" departDelay="0.00" arrival="25226.00" arrivalLane="23283579#1_0" arrivalPos="22.22" arrivalSpeed="13.00" duration="8.00" routeLength="44.72" waitingTime="0.00" waitingCount="0" stopTime="0.00" timeLoss="4.05" rerouteNo="0" devices="tripinfo_142890_415_0 routing_142890_415_0" vType="pkw" speedFactor="1.01" vaporized=""/>
    <tripinfo id="137312_412_0" depart="25200.00" departLane="-23283579#1_0" departPos="4.40" departSpeed="0.00" departDelay="0.00" arrival="25233.00" arrivalLane="23283436_0" arrivalPos="65.76" arrivalSpeed="13.20" duration="33.00" routeLength="404.67" waitingTime="0.00" waitingCount="0" stopTime="0.00" timeLoss="2.89" rerouteNo="1" devices="tripinfo_137312_412_0 routing_137312_412_0" vType="pkw" speedFactor="0.99" vaporized=""/>
    <tripinfo id="137959_412_0" depart="25209.00" departLane="-186623965#18_0" departPos="4.40" departSpeed="0.00" departDelay="0.00" arrival="25250.00" arrivalLane="-22917421#4_0" arrivalPos="96.26" arrivalSpeed="8.01" duration="41.00" routeLength="263.02" waitingTime="8.00" waitingCount="1" stopTime="0.00" timeLoss="16.27" rerouteNo="0" devices="tripinfo_137959_412_0 routing_137959_412_0" vType="pkw" speedFactor="0.99" vaporized=""/>
    <tripinfo id="155570_420_0" depart="25200.00" departLane="-28675510#11_0" departPos="4.40" departSpeed="0.00" departDelay="0.00" arrival="25256.00" arrivalLane="28675510#7_0" arrivalPos="257.94" arrivalSpeed="9.71" duration="56.00" routeLength="516.12" waitingTime="0.00" waitingCount="0" stopTime="0.00" timeLoss="4.90" rerouteNo="0" devices="tripinfo_155570_420_0 routing_155570_420_0" vType="pkw" speedFactor="0.73" vaporized=""/>
    <tripinfo id="114597_403_0" depart="25201.00" departLane="22917421#3_0" departPos="4.40" departSpeed="0.00" departDelay="0.00" arrival="25258.00" arrivalLane="-186623965#14_0" arrivalPos="159.69" arrivalSpeed="11.72" duration="57.00" routeLength="476.78" waitingTime="4.00" waitingCount="1" stopTime="0.00" timeLoss="12.54" rerouteNo="1" devices="tripinfo_114597_403_0 routing_114597_403_0" vType="pkw" speedFactor="0.89" vaporized=""/>
    <tripinfo id="134603_411_0" depart="25206.00" departLane="-28675510#11_0" departPos="4.40" departSpeed="0.00" departDelay="0.00" arrival="25258.00" arrivalLane="28675510#7_0" arrivalPos="257.94" arrivalSpeed="12.64" duration="52.00" routeLength="516.12" waitingTime="0.00" waitingCount="0" stopTime="0.00" timeLoss="12.69" rerouteNo="0" devices="tripinfo_134603_411_0 routing_134603_411_0" vType="pkw" speedFactor="0.97" vaporized=""/>
    <tripinfo id="140143_414_0" depart="25211.00" departLane="-28675510#11_0" departPos="4.40" departSpeed="0.00" departDelay="1.00" arrival="25259.00" arrivalLane="28675510#7_0" arrivalPos="257.94" arrivalSpeed="12.88" duration="48.00" routeLength="516.12" waitingTime="0.00" waitingCount="0" stopTime="0.00" timeLoss="12.44" rerouteNo="0" devices="tripinfo_140143_414_0 routing_140143_414_0" vType="pkw" speedFactor="1.05" vaporized=""/>
    <tripinfo id="135663_411_0" depart="25217.00" departLane="-28675510#11_0" departPos="4.40" departSpeed="0.00" departDelay="3.00" arrival="25265.00" arrivalLane="28675510#7_0" arrivalPos="257.94" arrivalSpeed="11.68" duration="48.00" routeLength="516.12" waitingTime="0.00" waitingCount="0" stopTime="0.00" timeLoss="5.44" rerouteNo="0" devices="tripinfo_135663_411_0 routing_135663_411_0" vType="pkw" speedFactor="0.88" vaporized=""/>
    <tripinfo id="149045_417_0" depart="25220.00" departLane="-28675510#11_0" departPos="4.40" departSpeed="0.00" departDelay="3.00" arrival="25267.00" arrivalLane="28675510#7_0" arrivalPos="257.94" arrivalSpeed="13.80" duration="47.00" routeLength="516.12" waitingTime="0.00" waitingCount="0" stopTime="0.00" timeLoss="10.30" rerouteNo="0" devices="tripinfo_149045_417_0 routing_149045_417_0" vType="pkw" speedFactor="1.03" vaporized=""/>
    <tripinfo id="119181_405_0" depart="25226.00" departLane="186623965#9_0" departPos="4.40" departSpeed="0.00" departDelay="0.00" arrival="25268.00" arrivalLane="42925825#0_0" arrivalPos="254.17" arrivalSpeed="12.10" duration="42.00" routeLength="418.48" waitingTime="0.00" waitingCount="0" stopTime="0.00" timeLoss="9.06" rerouteNo="0" devices="tripinfo_119181_405_0 routing_119181_405_0" vType="pkw" speedFactor="0.93" vaporized=""/>
    <tripinfo id="138070_412_0" depart="25229.00" departLane="22917421#3_0" departPos="4.40" departSpeed="0.00" departDelay="0.00" arrival="25270.00" arrivalLane="186623965#17_0" arrivalPos="143.63" arrivalSpeed="13.80" duration="41.00" routeLength="257.42" waitingTime="10.00" waitingCount="1" stopTime="0.00" timeLoss="17.27" rerouteNo="0" devices="tripinfo_138070_412_0 routing_138070_412_0" vType="pkw" speedFactor="1.00" vaporized=""/>
    <tripinfo id="133416_410_0" depart="25228.00" departLane="186623965#9_0" departPos="4.40" departSpeed="0.00" departDelay="0.00" arrival="25271.00" arrivalLane="42925825#0_0" arrivalPos="254.17" arrivalSpeed="11.16" duration="43.00" routeLength="418.48" waitingTime="0.00" waitingCount="0" stopTime="0.00" timeLoss="7.37" rerouteNo="0" devices="tripinfo_133416_410_0 routing_133416_410_0" vType="pkw" speedFactor="0.85" vaporized=""/>
    <tripinfo id="153496_420_0" depart="25232.00" departLane="22917421#3_0" departPos="4.40" departSpeed="0.00" departDelay="0.00" arrival="25272.00" arrivalLane="186623965#17_0" arrivalPos="143.63" arrivalSpeed="14.57" duration="40.00" routeLength="257.42" waitingTime="8.00" waitingCount="1" stopTime="0.00" timeLoss="17.16" rerouteNo="0" devices="tripinfo_153496_420_0 routing_153496_420_0" vType="pkw" speedFactor="1.05" vaporized=""/>
    <tripinfo id="140525_414_0" depart="25221.00" departLane="186623965#9_0" departPos="4.40" departSpeed="0.00" departDelay="0.00" arrival="25277.00" arrivalLane="186623965#17_0" arrivalPos="143.63" arrivalSpeed="16.01" duration="56.00" routeLength="527.61" waitingTime="7.00" waitingCount="2" stopTime="0.00" timeLoss="23.91" rerouteNo="1" devices="tripinfo_140525_414_0 routing_140525_414_0" vType="pkw" speedFactor="1.21" vaporized=""/>
    <tripinfo id="161942_421_0" depart="25233.00" departLane="-42925825#2_0" departPos="4.40" departSpeed="0.00" departDelay="0.00" arrival="25282.00" arrivalLane="42925825#0_0" arrivalPos="254.17" arrivalSpeed="17.00" duration="49.00" routeLength="508.64" waitingTime="8.00" waitingCount="1" stopTime="0.00" timeLoss="18.47" rerouteNo="0" devices="tripinfo_161942_421_0 routing_161942_421_0" vType="pkw" speedFactor="1.24" vaporized=""/>
    <tripinfo id="76230_386_0" depart="25204.00" departLane="-23283579#1_0" departPos="4.40" departSpeed="0.00" departDelay="0.00" arrival="25290.00" arrivalLane="297047309#0_0" arrivalPos="91.17" arrivalSpeed="11.66" duration="86.00" routeLength="656.20" waitingTime="0.00" waitingCount="0" stopTime="0.00" timeLoss="7.73" rerouteNo="1" devices="tripinfo_76230_386_0 routing_76230_386_0" vType="pkw" speedFactor="0.85" vaporized=""/>
    <tripinfo id="110248_401_0" depart="25207.00" departLane="-23283579#1_0" departPos="4.40" departSpeed="0.00" departDelay="1.00" arrival="25291.00" arrivalLane="297047309#0_0" arrivalPos="91.17" arrivalSpeed="12.69" duration="84.00" routeLength="656.20" waitingTime="0.00" waitingCount="0" stopTime="0.00" timeLoss="15.73" rerouteNo="1" devices="tripinfo_110248_401_0 routing_110248_401_0" vType="pkw" speedFactor="0.97" vaporized=""/>
    <tripinfo id="111571_401_0" depart="25267.00" departLane="-353069169#0_0" departPos="4.40" departSpeed="0.00" departDelay="0.00" arrival="25294.00" arrivalLane="24487264_0" arrivalPos="166.35" arrivalSpeed="13.19" duration="27.00" routeLength="286.19" waitingTime="0.00" waitingCount="0" stopTime="0.00" timeLoss="4.96" rerouteNo="1" devices="tripinfo_111571_401_0 routing_111571_401_0" vType="pkw" speedFactor="1.01" vaporized=""/>
    <tripinfo id="141355_415_0" depart="25232.00" departLane="-186623965#18_0" departPos="4.40" departSpeed="0.00" departDelay="0.00" arrival="25302.00" arrivalLane="42925825#0_0" arrivalPos="254.17" arrivalSpeed="13.54" duration="70.00" routeLength="625.62" waitingTime="15.00" waitingCount="1" stopTime="0.00" timeLoss="23.97" rerouteNo="1" devices="tripinfo_141355_415_0 routing_141355_415_0" vType="pkw" speedFactor="1.00" vaporized=""/>
    <tripinfo id="131071_409_0" depart="25236.00" departLane="-186623965#18_0" departPos="4.40" departSpeed="0.00" departDelay="0.00" arrival="25305.00" arrivalLane="42925825#0_0" arrivalPos="254.17" arrivalSpeed="12.34" duration="69.00" routeLength="625.62" waitingTime="11.00" waitingCount="1" stopTime="0.00" timeLoss="21.14" rerouteNo="1" devices="tripinfo_131071_409_0 routing_131071_409_0" vType="pkw" speedFactor="0.95" vaporized=""/>
    <tripinfo id="134428_411_0" depart="25237.00" departLane="-28675510#11_0" departPos="4.40" departSpeed="0.00" departDelay="0.00" arrival="25305.00" arrivalLane="28675510#7_0" arrivalPos="257.94" arrivalSpeed="13.22" duration="68.00" routeLength="516.12" waitingTime="13.00" waitingCount="2" stopTime="0.00" timeLoss="29.21" rerouteNo="0" devices="tripinfo_134428_411_0 routing_134428_411_0" vType="pkw" speedFactor="0.97" vaporized=""/>
    <tripinfo id="131243_409_0" depart="25248.00" departLane="-186623965#18_0" departPos="4.40" departSpeed="0.00" departDelay="0.00" arrival="25308.00" arrivalLane="-186623965#14_1" arrivalPos="159.69" arrivalSpeed="14.61" duration="60.00" routeLength="528.65" waitingTime="7.00" waitingCount="2" stopTime="0.00" timeLoss="24.66" rerouteNo="1" devices="tripinfo_131243_409_0 routing_131243_409_0" vType="pkw" speedFactor="1.10" vaporized=""/>
    <tripinfo id="150593_418_0" depart="25297.00" departLane="22959552#0_0" departPos="4.40" departSpeed="0.00" departDelay="0.00" arrival="25311.00" arrivalLane="22959552#0_0" arrivalPos="91.39" arrivalSpeed="7.42" duration="14.00" routeLength="86.99" waitingTime="0.00" waitingCount="0" stopTime="0.00" timeLoss="2.91" rerouteNo="1" devices="tripinfo_150593_418_0 routing_150593_418_0" vType="pkw" speedFactor="1.01" vaporized=""/>
    <tripinfo id="121484_406_0" depart="25268.00" departLane="-23283579#1_0" departPos="4.40" departSpeed="0.00" departDelay="0.00" arrival="25314.00" arrivalLane="133081987#3_0" arrivalPos="99.94" arrivalSpeed="14.88" duration="46.00" routeLength="434.85" waitingTime="2.00" waitingCount="1" stopTime="0.00" timeLoss="16.59" rerouteNo="1" devices="tripinfo_121484_406_0 routing_121484_406_0" vType="pkw" speedFactor="1.08" vaporized=""/>
    <tripinfo id="127809_407_0" depart="25257.00" departLane="-23283579#1_0" departPos="4.40" departSpeed="0.00" departDelay="0.00" arrival="25315.00" arrivalLane="23285888#0_0" arrivalPos="109.58" arrivalSpeed="6.63" duration="58.00" routeLength="410.95" waitingTime="0.00" waitingCount="0" stopTime="0.00" timeLoss="6.47" rerouteNo="1" devices="tripinfo_127809_407_0 routing_127809_407_0" vType="pkw" speedFactor="0.87" vaporized=""/>
    <tripinfo id="113370_402_0" depart="25249.00" departLane="186623965#9_0" departPos="4.40" departSpeed="0.00" departDelay="0.00" arrival="25316.00" arrivalLane="42925825#0_0" arrivalPos="254.17" arrivalSpeed="13.25" duration="67.00" routeLength="418.48" waitingTime="25.00" waitingCount="1" stopTime="0.00" timeLoss="35.14" rerouteNo="0" devices="tripinfo_113370_402_0 routing_113370_402_0" vType="pkw" speedFactor="0.96" vaporized=""/>
    <tripinfo id="146152_416_0" depart="25210.00" departLane="25166682#0_0" departPos="4.40" departSpeed="0.00" departDelay="0.00" arrival="25317.00" arrivalLane="28675510#7_0" arrivalPos="257.94" arrivalSpeed="14.45" duration="107.00" routeLength="1219.50" waitingTime="0.00" waitingCount="0" stopTime="0.00" timeLoss="11.31" rerouteNo="1" devices="tripinfo_146152_416_0 routing_146152_416_0" vType="pkw" speedFactor="1.13" vaporized=""/>
    <tripinfo id="145282_416_0" depart="25259.00" departLane="186623965#9_0" departPos="4.40" departSpeed="0.00" departDelay="0.00" arrival="25318.00" arrivalLane="42925825#0_0" arrivalPos="254.17" arrivalSpeed="12.12" duration="59.00" routeLength="418.48" waitingTime="17.00" waitingCount="1" stopTime="0.00" timeLoss="26.97" rerouteNo="0" devices="tripinfo_145282_416_0 routing_145282_416_0" vType="pkw" speedFactor="0.95" vaporized=""/>
    <tripinfo id="163043_422_0" depart="25214.00" departLane="-28675510#11_0" departPos="4.40" departSpeed="0.00" departDelay="2.00" arrival="25323.00" arrivalLane="8716827#0_0" arrivalPos="109.12" arrivalSpeed="7.46" duration="109.00" routeLength="1154.53" waitingTime="5.00" waitingCount="1" stopTime="0.00" timeLoss="19.65" rerouteNo="1" devices="tripinfo_163043_422_0 routing_163043_422_0" vType="pkw" speedFactor="1.00" vaporized=""/>
    <tripinfo id="126900_407_0" depart="25239.00" departLane="-186623965#18_0" departPos="4.40" departSpeed="0.00" departDelay="0.00" arrival="25324.00" arrivalLane="42925825#0_0" arrivalPos="254.17" arrivalSpeed="10.15" duration="85.00" routeLength="625.62" waitingTime="14.00" waitingCount="2" stopTime="0.00" timeLoss="29.20" rerouteNo="1" devices="tripinfo_126900_407_0 routing_126900_407_0" vType="pkw" speedFactor="0.82" vaporized=""/>
    <tripinfo id="126698_407_0" depart="25241.00" departLane="-186623965#18_0" departPos="4.40" departSpeed="0.00" departDelay="0.00" arrival="25325.00" arrivalLane="42925825#0_0" arrivalPos="254.17" arrivalSpeed="12.20" duration="84.00" routeLength="625.62" waitingTime="8.00" waitingCount="2" stopTime="0.00" timeLoss="39.43" rerouteNo="1" devices="tripinfo_126698_407_0 routing_126698_407_0" vType="pkw" speedFactor="1.01" vaporized=""/>
    <tripinfo id="91556_392_0" depart="25271.00" departLane="-23283579#1_0" departPos="4.40" departSpeed="0.00" departDelay="1.00" arrival="25329.00" arrivalLane="23840972_0" arrivalPos="97.66" arrivalSpeed="8.45" duration="58.00" routeLength="525.30" waitingTime="1.00" waitingCount="1" stopTime="0.00" timeLoss="14.34" rerouteNo="1" devices="tripinfo_91556_392_0 routing_91556_392_0" vType="pkw" speedFactor="1.08" vaporized=""/>
    <tripinfo id="163799_422_0" depart="25256.00" departLane="-186623965#18_0" departPos="4.40" departSpeed="0.00" departDelay="1.00" arrival="25331.00" arrivalLane="-22917421#4_0" arrivalPos="96.26" arrivalSpeed="8.82" duration="75.00" routeLength="263.02" waitingTime="35.00" waitingCount="2" stopTime="0.00" timeLoss="52.44" rerouteNo="0" devices="tripinfo_163799_422_0 routing_163799_422_0" vType="pkw" speedFactor="1.08" vaporized=""/>
    <tripinfo id="171184_426_0" depart="25326.00" departLane="133081987#0_0" departPos="4.40" departSpeed="0.00" departDelay="0.00" arrival="25343.00" arrivalLane="23283436_0" arrivalPos="65.76" arrivalSpeed="11.64" duration="17.00" routeLength="154.99" waitingTime="0.00" waitingCount="0" stopTime="0.00" timeLoss="4.35" rerouteNo="0" devices="tripinfo_171184_426_0 routing_171184_426_0" vType="pkw" speedFactor="0.89" vaporized=""/>
    <tripinfo id="155353_420_0" depart="25234.00" departLane="22917421#3_0" departPos="4.40" departSpeed="0.00" departDelay="0.00" arrival="25348.00" arrivalLane="186623965#17_0" arrivalPos="143.63" arrivalSpeed="13.84" duration="114.00" routeLength="257.42" waitingTime="76.00" waitingCount="2" stopTime="0.00" timeLoss="90.52" rerouteNo="0" devices="tripinfo_155353_420_0 routing_155353_420_0" vType="pkw" speedFactor="1.02" vaporized=""/>
    <tripinfo id="156485_420_0" depart="25205.00" departLane="22959552#0_0" departPos="4.40" departSpeed="0.00" departDelay="0.00" arrival="25349.00" arrivalLane="28675510#7_0" arrivalPos="257.94" arrivalSpeed="11.84" duration="144.00" routeLength="1112.54" waitingTime="16.00" waitingCount="2" stopTime="0.00" timeLoss="33.45" rerouteNo="1" devices="tripinfo_156485_420_0 routing_156485_420_0" vType="pkw" speedFactor="0.94" vaporized=""/>
    <tripinfo id="159622_421_0" depart="25253.00" departLane="-186623965#18_0" departPos="4.40" departSpeed="0.00" departDelay="2.00" arrival="25349.00" arrivalLane="42925825#0_0" arrivalPos="254.17" arrivalSpeed="15.03" duration="96.00" routeLength="625.62" waitingTime="36.00" waitingCount="2" stopTime="0.00" timeLoss="54.09" rerouteNo="1" devices="tripinfo_159622_421_0 routing_159622_421_0" vType="pkw" speedFactor="1.09" vaporized=""/>
    <tripinfo id="166162_424_0" depart="25238.00" departLane="22959550#0_0" departPos="4.40" departSpeed="0.00" departDelay="5.00" arrival="25353.00" arrivalLane="28675510#7_0" arrivalPos="257.94" arrivalSpeed="12.03" duration="115.00" routeLength="903.30" waitingTime="3.00" waitingCount="1" stopTime="0.00" timeLoss="19.27" rerouteNo="1" devices="tripinfo_166162_424_0 routing_166162_424_0" vType="pkw" speedFactor="0.88" vaporized=""/>
    <tripinfo id="163025_422_0" depart="25246.00" departLane="-28675510#11_0" departPos="4.40" departSpeed="0.00" departDelay="0.00" arrival="25354.00" arrivalLane="8716807#1_0" arrivalPos="110.75" arrivalSpeed="6.92" duration="108.00" routeLength="862.02" waitingTime="8.00" waitingCount="1" stopTime="0.00" timeLoss="25.77" rerouteNo="1" devices="tripinfo_163025_422_0 routing_163025_422_0" vType="pkw" speedFactor="0.90" vaporized=""/>
    <tripinfo id="129175_408_0" depart="25255.00" departLane="-23283579#1_0" departPos="4.40" departSpeed="0.00" departDelay="0.00" arrival="25354.00" arrivalLane="323450710#0_0" arrivalPos="95.59" arrivalSpeed="12.71" duration="99.00" routeLength="843.12" waitingTime="4.00" waitingCount="1" stopTime="0.00" timeLoss="16.80" rerouteNo="1" devices="tripinfo_129175_408_0 routing_129175_408_0" vType="pkw" speedFactor="0.97" vaporized=""/>
    <tripinfo id="158885_421_0" depart="25220.00" departLane="22917421#3_0" departPos="4.40" departSpeed="0.00" departDelay="0.00" arrival="25357.00" arrivalLane="28675510#7_0" arrivalPos="257.94" arrivalSpeed="12.60" duration="137.00" routeLength="937.03" waitingTime="20.00" waitingCount="2" stopTime="0.00" timeLoss="35.65" rerouteNo="1" devices="tripinfo_158885_421_0 routing_158885_421_0" vType="pkw" speedFactor="0.98" vaporized=""/>
    <tripinfo id="118788_405_0" depart="25247.00" departLane="22917421#3_0" departPos="4.40" departSpeed="0.00" departDelay="0.00" arrival="25361.00" arrivalLane="186623965#17_0" arrivalPos="143.63" arrivalSpeed="13.12" duration="114.00" routeLength="257.42" waitingTime="68.00" waitingCount="2" stopTime="0.00" timeLoss="88.82" rerouteNo="0" devices="tripinfo_118788_405_0 routing_118788_405_0" vType="pkw" speedFactor="0.95" vaporized=""/>
    <tripinfo id="144617_416_0" depart="25256.00" departLane="22917421#3_0" departPos="4.40" departSpeed="0.00" departDelay="0.00" arrival="25363.00" arrivalLane="186623965#17_0" arrivalPos="143.63" arrivalSpeed="12.13" duration="107.00" routeLength="257.42" waitingTime="66.00" waitingCount="1" stopTime="0.00" timeLoss="82.30" rerouteNo="0" devices="tripinfo_144617_416_0 routing_144617_416_0" vType="pkw" speedFactor="0.96" vaporized=""/>
    <tripinfo id="152887_419_0" depart="25229.00" departLane="-28675510#11_0" departPos="4.40" departSpeed="0.00" departDelay="0.00" arrival="25365.00" arrivalLane="8716827#0_0" arrivalPos="109.12" arrivalSpeed="6.91" duration="136.00" routeLength="1154.53" waitingTime="21.00" waitingCount="2" stopTime="0.00" timeLoss="39.96" rerouteNo="1" devices="tripinfo_152887_419_0 routing_152887_419_0" vType="pkw" speedFactor="0.93" vaporized=""/>
    <tripinfo id="144017_416_0" depart="25348.00" departLane="-353069169#0_0" departPos="4.40" departSpeed="0.00" departDelay="0.00" arrival="25366.00" arrivalLane="323416262_0" arrivalPos="87.54" arrivalSpeed="13.95" duration="18.00" routeLength="175.35" waitingTime="0.00" waitingCount="0" stopTime="0.00" timeLoss="5.65" rerouteNo="0" devices="tripinfo_144017_416_0 routing_144017_416_0" vType="pkw" speedFactor="1.04" vaporized=""/>
    <tripinfo id="139269_413_0" depart="25307.00" departLane="-23283579#1_0" departPos="4.40" departSpeed="0.00" departDelay="0.00" arrival="25377.00" arrivalLane="-297047308_0" arrivalPos="28.52" arrivalSpeed="14.83" duration="70.00" routeLength="517.28" waitingTime="1.00" waitingCount="1" stopTime="0.00" timeLoss="17.58" rerouteNo="1" devices="tripinfo_139269_413_0 routing_139269_413_0" vType="pkw" speedFactor="1.07" vaporized=""/>
    <tripinfo id="166776_424_0" depart="25209.00" departLane="-28675510#11_0" departPos="4.40" departSpeed="0.00" departDelay="1.00" arrival="25379.00" arrivalLane="-186623965#14_0" arrivalPos="159.69" arrivalSpeed="12.74" duration="170.00" routeLength="1202.17" waitingTime="31.00" waitingCount="2" stopTime="0.00" timeLoss="52.99" rerouteNo="1" devices="tripinfo_166776_424_0 routing_166776_424_0" vType="pkw" speedFactor="0.97" vaporized=""/>
    <tripinfo id="84611_390_0" depart="25261.00" departLane="-23283579#1_0" departPos="4.40" departSpeed="0.00" departDelay="0.00" arrival="25379.00" arrivalLane="-23648008#0_0" arrivalPos="75.90" arrivalSpeed="13.93" duration="118.00" routeLength="782.02" waitingTime="29.00" waitingCount="2" stopTime="0.00" timeLoss="46.32" rerouteNo="1" devices="tripinfo_84611_390_0 routing_84611_390_0" vType="pkw" speedFactor="1.05" vaporized=""/>
    <tripinfo id="174787_427_0" depart="25287.00" departLane="22959550#3_0" departPos="4.40" departSpeed="0.00" departDelay="0.00" arrival="25379.00" arrivalLane="28675510#7_0" arrivalPos="257.94" arrivalSpeed="11.92" duration="92.00" routeLength="757.45" waitingTime="5.00" waitingCount="1" stopTime="0.00" timeLoss="15.92" rerouteNo="1" devices="tripinfo_174787_427_0 routing_174787_427_0" vType="pkw" speedFactor="0.88" vaporized=""/>
    <tripinfo id="162497_421_0" depart="25273.00" departLane="22917421#3_0" departPos="4.40" departSpeed="0.00" departDelay="0.00" arrival="25380.00" arrivalLane="186623965#17_0" arrivalPos="143.63" arrivalSpeed="11.47" duration="107.00" routeLength="257.42" waitingTime="61.00" waitingCount="2" stopTime="0.00" timeLoss="78.78" rerouteNo="0" devices="tripinfo_162497_421_0 routing_162497_421_0" vType="pkw" speedFactor="0.83" vaporized=""/>
    <tripinfo id="146111_416_0" depart="25223.00" departLane="-28675510#11_0" departPos="4.40" departSpeed="0.00" departDelay="2.00" arrival="25381.00" arrivalLane="-186623965#14_0" arrivalPos="159.69" arrivalSpeed="12.53" duration="158.00" routeLength="1202.17" waitingTime="10.00" waitingCount="2" stopTime="0.00" timeLoss="33.19" rerouteNo="1" devices="tripinfo_146111_416_0 routing_146111_416_0" vType="pkw" speedFactor="0.91" vaporized=""/>
    <tripinfo id="162890_422_0" depart="25264.00" departLane="8716807#1_0" departPos="4.40" departSpeed="0.00" departDelay="0.00" arrival="25381.00" arrivalLane="28675510#7_0" arrivalPos="257.94" arrivalSpeed="12.44" duration="117.00" routeLength="973.61" waitingTime="11.00" waitingCount="1" stopTime="0.00" timeLoss="27.11" rerouteNo="1" devices="tripinfo_162890_422_0 routing_162890_422_0" vType="pkw" speedFactor="0.97" vaporized=""/>
    <tripinfo id="152801_419_0" depart="25299.00" departLane="-297047307_0" departPos="4.40" departSpeed="0.00" departDelay="0.00" arrival="25381.00" arrivalLane="297047309#0_0" arrivalPos="91.17" arrivalSpeed="10.92" duration="82.00" routeLength="439.92" waitingTime="36.00" waitingCount="1" stopTime="0.00" timeLoss="44.80" rerouteNo="1" devices="tripinfo_152801_419_0 routing_152801_419_0" vType="pkw" speedFactor="0.86" vaporized=""/>
    <tripinfo id="145512_416_0" depart="25308.00" departLane="22917421#3_0" departPos="4.40" departSpeed="0.00" departDelay="0.00" arrival="25382.00" arrivalLane="186623965#17_0" arrivalPos="143.63" arrivalSpeed="13.49" duration="74.00" routeLength="257.42" waitingTime="28.00" waitingCount="2" stopTime="0.00" timeLoss="51.01" rerouteNo="0" devices="tripinfo_145512_416_0 routing_145512_416_0" vType="pkw" speedFactor="1.04" vaporized=""/>
    <tripinfo id="131237_409_0" depart="25228.00" departLane="-186623965#18_0" departPos="4.40" departSpeed="0.00" departDelay="0.00" arrival="25383.00" arrivalLane="297047309#0_0" arrivalPos="91.17" arrivalSpeed="11.91" duration="155.00" routeLength="1417.37" waitingTime="27.00" waitingCount="2" stopTime="0.00" timeLoss="46.62" rerouteNo="1" devices="tripinfo_131237_409_0 routing_131237_409_0" vType="pkw" speedFactor="0.95" vaporized=""/>
    <tripinfo id="154212_420_0" depart="25232.00" departLane="-28675510#11_0" departPos="4.40" departSpeed="0.00" departDelay="0.00" arrival="25384.00" arrivalLane="-186623965#14_0" arrivalPos="159.69" arrivalSpeed="12.59" duration="152.00" routeLength="1202.17" waitingTime="9.00" waitingCount="2" stopTime="0.00" timeLoss="33.65" rerouteNo="1" devices="tripinfo_154212_420_0 routing_154212_420_0" vType="pkw" speedFactor="0.96" vaporized=""/>
    <tripinfo id="117517_404_0" depart="25225.00" departLane="-28675510#11_0" departPos="4.40" departSpeed="0.00" departDelay="1.00" arrival="25385.00" arrivalLane="-186623965#14_1" arrivalPos="159.69" arrivalSpeed="14.94" duration="160.00" routeLength="1202.17" waitingTime="22.00" waitingCount="3" stopTime="0.00" timeLoss="59.47" rerouteNo="1" devices="tripinfo_117517_404_0 routing_117517_404_0" vType="pkw" speedFactor="1.13" vaporized=""/>
    <tripinfo id="166783_424_0" depart="25349.00" departLane="22917421#3_0" departPos="4.40" departSpeed="0.00" departDelay="0.00" arrival="25387.00" arrivalLane="186623965#17_0" arrivalPos="143.63" arrivalSpeed="14.18" duration="38.00" routeLength="257.42" waitingTime="7.00" waitingCount="1" stopTime="0.00" timeLoss="15.93" rerouteNo="0" devices="tripinfo_166783_424_0 routing_166783_424_0" vType="pkw" speedFactor="1.07" vaporized=""/>
    <tripinfo id="142950_415_0" depart="25274.00" departLane="-28675510#11_0" departPos="4.40" departSpeed="0.00" departDelay="0.00" arrival="25388.00" arrivalLane="155723703#0_0" arrivalPos="92.60" arrivalSpeed="12.80" duration="114.00" routeLength="1137.50" waitingTime="13.00" waitingCount="1" stopTime="0.00" timeLoss="26.62" rerouteNo="1" devices="tripinfo_142950_415_0 routing_142950_415_0" vType="pkw" speedFactor="0.94" vaporized=""/>
    <tripinfo id="147744_416_0" depart="25272.00" departLane="-186623965#18_0" departPos="4.40" departSpeed="0.00" departDelay="0.00" arrival="25390.00" arrivalLane="42925825#0_0" arrivalPos="254.17" arrivalSpeed="12.39" duration="118.00" routeLength="625.62" waitingTime="46.00" waitingCount="3" stopTime="0.00" timeLoss="68.30" rerouteNo="1" devices="tripinfo_147744_416_0 routing_147744_416_0" vType="pkw" speedFactor="0.92" vaporized=""/>
    <tripinfo id="164302_422_0" depart="25240.00" departLane="-28675510#11_0" departPos="4.40" departSpeed="0.00" departDelay="0.00" arrival="25392.00" arrivalLane="-186623965#14_0" arrivalPos="159.69" arrivalSpeed="14.71" duration="152.00" routeLength="1202.17" waitingTime="19.00" waitingCount="3" stopTime="0.00" timeLoss="48.68" rerouteNo="1" devices="tripinfo_164302_422_0 routing_164302_422_0" vType="pkw" speedFactor="1.10" vaporized=""/>
    <tripinfo id="161216_421_0" depart="25250.00" departLane="-186623965#18_0" departPos="4.40" departSpeed="0.00" departDelay="2.00" arrival="25392.00" arrivalLane="42925825#0_0" arrivalPos="254.17" arrivalSpeed="12.77" duration="142.00" routeLength="625.62" waitingTime="66.00" waitingCount="2" stopTime="0.00" timeLoss="93.65" rerouteNo="1" devices="tripinfo_161216_421_0 routing_161216_421_0" vType="pkw" speedFactor="0.95" vaporized=""/>
    <tripinfo id="158136_421_0" depart="25240.00" departLane="28675510#1_0" departPos="4.40" departSpeed="0.00" departDelay="0.00" arrival="25396.00" arrivalLane="323416262_0" arrivalPos="87.54" arrivalSpeed="13.03" duration="156.00" routeLength="1126.93" waitingTime="31.00" waitingCount="1" stopTime="0.00" timeLoss="46.87" rerouteNo="1" devices="tripinfo_158136_421_0 routing_158136_421_0" vType="pkw" speedFactor="0.96" vaporized=""/>
    <tripinfo id="148039_417_0" depart="25331.00" departLane="-186623965#16_0" departPos="4.40" departSpeed="0.00" departDelay="0.00" arrival="25396.00" arrivalLane="186623965#17_1" arrivalPos="143.63" arrivalSpeed="15.03" duration="65.00" routeLength="545.21" waitingTime="15.00" waitingCount="1" stopTime="0.00" timeLoss="30.45" rerouteNo="1" devices="tripinfo_148039_417_0 routing_148039_417_0" vType="pkw" speedFactor="1.16" vaporized=""/>
    <tripinfo id="120970_405_0" depart="25343.00" departLane="-23283579#1_0" departPos="4.40" departSpeed="0.00" departDelay="0.00" arrival="25396.00" arrivalLane="23283470#5_0" arrivalPos="89.27" arrivalSpeed="7.28" duration="53.00" routeLength="393.04" waitingTime="0.00" waitingCount="0" stopTime="0.00" timeLoss="9.03" rerouteNo="1" devices="tripinfo_120970_405_0 routing_120970_405_0" vType="pkw" speedFactor="0.98" vaporized=""/>