<?xml version="1.0" encoding="UTF-8"?>

<!-- generated on 12/09/21 20:41:24 by Eclipse SUMO sumo Version 1.7.0
<configuration xmlns:xsi="http://www.w3.org/2001/XMLSchema-instance" xsi:noNamespaceSchemaLocation="http://sumo.dlr.de/xsd/sumoConfiguration.xsd">

    <input>
        <net-file value="C:\Users\longs\Desktop\RESCO-main\environments/cologne8/cologne8.net.xml"/>
        <route-files value="C:\Users\longs\Desktop\RESCO-main\environments/cologne8/cologne8.rou.xml"/>
    </input>

    <output>
        <tripinfo-output value="C:\Users\longs\Desktop\RESCO-main\logs\IDQN-tr1-cologne8-0-drqlong-delaydiff_pressure03\tripinfo_7.xml"/>
        <tripinfo-output.write-unfinished value="true"/>
    </output>

    <time>
        <begin value="25200"/>
        <end value="28800"/>
    </time>

    <processing>
        <time-to-teleport value="-1"/>
    </processing>

    <report>
        <no-warnings value="true"/>
        <no-step-log value="true"/>
    </report>

    <traci_server>
        <remote-port value="63231"/>
    </traci_server>

    <random_number>
        <random value="true"/>
    </random_number>

</configuration>
-->

<tripinfos xmlns:xsi="http://www.w3.org/2001/XMLSchema-instance" xsi:noNamespaceSchemaLocation="http://sumo.dlr.de/xsd/tripinfo_file.xsd">
    <tripinfo id="142890_415_0" depart="25218.00" departLane="-23283579#1_0" departPos="4.40" departSpeed="0.00" departDelay="0.00" arrival="25225.00" arrivalLane="23283579#1_0" arrivalPos="22.22" arrivalSpeed="11.69" duration="7.00" routeLength="44.72" waitingTime="0.00" waitingCount="0" stopTime="0.00" timeLoss="3.21" rerouteNo="0" devices="tripinfo_142890_415_0 routing_142890_415_0" vType="pkw" speedFactor="0.87" vaporized=""/>
    <tripinfo id="137312_412_0" depart="25200.00" departLane="-23283579#1_0" departPos="4.40" departSpeed="0.00" departDelay="0.00" arrival="25233.00" arrivalLane="23283436_0" arrivalPos="65.76" arrivalSpeed="13.60" duration="33.00" routeLength="404.67" waitingTime="0.00" waitingCount="0" stopTime="0.00" timeLoss="3.84" rerouteNo="1" devices="tripinfo_137312_412_0 routing_137312_412_0" vType="pkw" speedFactor="1.00" vaporized=""/>
    <tripinfo id="137959_412_0" depart="25209.00" departLane="-186623965#18_0" departPos="4.40" departSpeed="0.00" departDelay="0.00" arrival="25238.00" arrivalLane="-22917421#4_0" arrivalPos="96.26" arrivalSpeed="8.33" duration="29.00" routeLength="263.02" waitingTime="0.00" waitingCount="0" stopTime="0.00" timeLoss="5.00" rerouteNo="0" devices="tripinfo_137959_412_0 routing_137959_412_0" vType="pkw" speedFactor="1.03" vaporized=""/>
    <tripinfo id="155570_420_0" depart="25200.00" departLane="-28675510#11_0" departPos="4.40" departSpeed="0.00" departDelay="0.00" arrival="25254.00" arrivalLane="28675510#7_0" arrivalPos="257.94" arrivalSpeed="14.57" duration="54.00" routeLength="516.12" waitingTime="9.00" waitingCount="1" stopTime="0.00" timeLoss="18.60" rerouteNo="0" devices="tripinfo_155570_420_0 routing_155570_420_0" vType="pkw" speedFactor="1.07" vaporized=""/>
    <tripinfo id="134603_411_0" depart="25206.00" departLane="-28675510#11_0" departPos="4.40" departSpeed="0.00" departDelay="0.00" arrival="25255.00" arrivalLane="28675510#7_0" arrivalPos="257.94" arrivalSpeed="13.98" duration="49.00" routeLength="516.12" waitingTime="4.00" waitingCount="1" stopTime="0.00" timeLoss="14.14" rerouteNo="0" devices="tripinfo_134603_411_0 routing_134603_411_0" vType="pkw" speedFactor="1.07" vaporized=""/>
    <tripinfo id="140143_414_0" depart="25211.00" departLane="-28675510#11_0" departPos="4.40" departSpeed="0.00" departDelay="1.00" arrival="25260.00" arrivalLane="28675510#7_0" arrivalPos="257.94" arrivalSpeed="15.38" duration="49.00" routeLength="516.12" waitingTime="1.00" waitingCount="1" stopTime="0.00" timeLoss="14.75" rerouteNo="0" devices="tripinfo_140143_414_0 routing_140143_414_0" vType="pkw" speedFactor="1.11" vaporized=""/>
    <tripinfo id="161942_421_0" depart="25233.00" departLane="-42925825#2_0" departPos="4.40" departSpeed="0.00" departDelay="0.00" arrival="25285.00" arrivalLane="42925825#0_0" arrivalPos="254.17" arrivalSpeed="13.54" duration="52.00" routeLength="508.64" waitingTime="5.00" waitingCount="1" stopTime="0.00" timeLoss="15.61" rerouteNo="0" devices="tripinfo_161942_421_0 routing_161942_421_0" vType="pkw" speedFactor="1.01" vaporized=""/>
    <tripinfo id="138070_412_0" depart="25229.00" departLane="22917421#3_0" departPos="4.40" departSpeed="0.00" departDelay="0.00" arrival="25291.00" arrivalLane="186623965#17_0" arrivalPos="143.63" arrivalSpeed="11.72" duration="62.00" routeLength="257.42" waitingTime="25.00" waitingCount="1" stopTime="0.00" timeLoss="35.74" rerouteNo="0" devices="tripinfo_138070_412_0 routing_138070_412_0" vType="pkw" speedFactor="0.90" vaporized=""/>
    <tripinfo id="153496_420_0" depart="25232.00" departLane="22917421#3_0" departPos="4.40" departSpeed="0.00" departDelay="0.00" arrival="25293.00" arrivalLane="186623965#17_0" arrivalPos="143.63" arrivalSpeed="13.49" duration="61.00" routeLength="257.42" waitingTime="24.00" waitingCount="1" stopTime="0.00" timeLoss="36.85" rerouteNo="0" devices="tripinfo_153496_420_0 routing_153496_420_0" vType="pkw" speedFactor="0.99" vaporized=""/>
    <tripinfo id="155353_420_0" depart="25234.00" departLane="22917421#3_0" departPos="4.40" departSpeed="0.00" departDelay="0.00" arrival="25294.00" arrivalLane="186623965#17_0" arrivalPos="143.63" arrivalSpeed="14.94" duration="60.00" routeLength="257.42" waitingTime="23.00" waitingCount="1" stopTime="0.00" timeLoss="40.63" rerouteNo="0" devices="tripinfo_155353_420_0 routing_155353_420_0" vType="pkw" speedFactor="1.22" vaporized=""/>
    <tripinfo id="118788_405_0" depart="25247.00" departLane="22917421#3_0" departPos="4.40" departSpeed="0.00" departDelay="0.00" arrival="25301.00" arrivalLane="186623965#17_0" arrivalPos="143.63" arrivalSpeed="12.06" duration="54.00" routeLength="257.42" waitingTime="21.00" waitingCount="1" stopTime="0.00" timeLoss="29.06" rerouteNo="0" devices="tripinfo_118788_405_0 routing_118788_405_0" vType="pkw" speedFactor="0.94" vaporized=""/>
    <tripinfo id="141355_415_0" depart="25232.00" departLane="-186623965#18_0" departPos="4.40" departSpeed="0.00" departDelay="0.00" arrival="25302.00" arrivalLane="42925825#0_0" arrivalPos="254.17" arrivalSpeed="13.42" duration="70.00" routeLength="625.62" waitingTime="14.00" waitingCount="1" stopTime="0.00" timeLoss="23.93" rerouteNo="1" devices="tripinfo_141355_415_0 routing_141355_415_0" vType="pkw" speedFactor="0.98" vaporized=""/>
    <tripinfo id="131071_409_0" depart="25236.00" departLane="-186623965#18_0" departPos="4.40" departSpeed="0.00" departDelay="0.00" arrival="25304.00" arrivalLane="42925825#0_0" arrivalPos="254.17" arrivalSpeed="14.58" duration="68.00" routeLength="625.62" waitingTime="12.00" waitingCount="1" stopTime="0.00" timeLoss="24.99" rerouteNo="1" devices="tripinfo_131071_409_0 routing_131071_409_0" vType="pkw" speedFactor="1.07" vaporized=""/>
    <tripinfo id="135663_411_0" depart="25216.00" departLane="-28675510#11_0" departPos="4.40" departSpeed="0.00" departDelay="2.00" arrival="25308.00" arrivalLane="28675510#7_0" arrivalPos="257.94" arrivalSpeed="12.62" duration="92.00" routeLength="516.12" waitingTime="37.00" waitingCount="1" stopTime="0.00" timeLoss="53.03" rerouteNo="0" devices="tripinfo_135663_411_0 routing_135663_411_0" vType="pkw" speedFactor="0.96" vaporized=""/>
    <tripinfo id="150593_418_0" depart="25297.00" departLane="22959552#0_0" departPos="4.40" departSpeed="0.00" departDelay="0.00" arrival="25309.00" arrivalLane="22959552#0_0" arrivalPos="91.39" arrivalSpeed="10.04" duration="12.00" routeLength="86.99" waitingTime="0.00" waitingCount="0" stopTime="0.00" timeLoss="2.99" rerouteNo="1" devices="tripinfo_150593_418_0 routing_150593_418_0" vType="pkw" speedFactor="1.22" vaporized=""/>
    <tripinfo id="149045_417_0" depart="25219.00" departLane="-28675510#11_0" departPos="4.40" departSpeed="0.00" departDelay="2.00" arrival="25310.00" arrivalLane="28675510#7_0" arrivalPos="257.94" arrivalSpeed="13.22" duration="91.00" routeLength="516.12" waitingTime="36.00" waitingCount="1" stopTime="0.00" timeLoss="54.61" rerouteNo="0" devices="tripinfo_149045_417_0 routing_149045_417_0" vType="pkw" speedFactor="1.04" vaporized=""/>
    <tripinfo id="111571_401_0" depart="25267.00" departLane="-353069169#0_0" departPos="4.40" departSpeed="0.00" departDelay="0.00" arrival="25310.00" arrivalLane="24487264_0" arrivalPos="166.35" arrivalSpeed="11.22" duration="43.00" routeLength="286.19" waitingTime="10.00" waitingCount="1" stopTime="0.00" timeLoss="17.32" rerouteNo="1" devices="tripinfo_111571_401_0 routing_111571_401_0" vType="pkw" speedFactor="0.84" vaporized=""/>
    <tripinfo id="163799_422_0" depart="25256.00" departLane="-186623965#18_0" departPos="4.40" departSpeed="0.00" departDelay="1.00" arrival="25312.00" arrivalLane="-22917421#4_0" arrivalPos="96.26" arrivalSpeed="7.13" duration="56.00" routeLength="263.02" waitingTime="15.00" waitingCount="1" stopTime="0.00" timeLoss="29.96" rerouteNo="0" devices="tripinfo_163799_422_0 routing_163799_422_0" vType="pkw" speedFactor="0.93" vaporized=""/>
    <tripinfo id="127809_407_0" depart="25257.00" departLane="-23283579#1_0" departPos="4.40" departSpeed="0.00" departDelay="0.00" arrival="25313.00" arrivalLane="23285888#0_0" arrivalPos="109.58" arrivalSpeed="7.18" duration="56.00" routeLength="410.95" waitingTime="1.00" waitingCount="1" stopTime="0.00" timeLoss="6.64" rerouteNo="1" devices="tripinfo_127809_407_0 routing_127809_407_0" vType="pkw" speedFactor="0.92" vaporized=""/>
    <tripinfo id="121484_406_0" depart="25268.00" departLane="-23283579#1_0" departPos="4.40" departSpeed="0.00" departDelay="0.00" arrival="25317.00" arrivalLane="133081987#3_0" arrivalPos="99.94" arrivalSpeed="12.62" duration="49.00" routeLength="434.85" waitingTime="2.00" waitingCount="1" stopTime="0.00" timeLoss="15.05" rerouteNo="1" devices="tripinfo_121484_406_0 routing_121484_406_0" vType="pkw" speedFactor="0.93" vaporized=""/>
    <tripinfo id="134428_411_0" depart="25237.00" departLane="-28675510#11_0" departPos="4.40" departSpeed="0.00" departDelay="0.00" arrival="25319.00" arrivalLane="28675510#7_0" arrivalPos="257.94" arrivalSpeed="14.03" duration="82.00" routeLength="516.12" waitingTime="32.00" waitingCount="1" stopTime="0.00" timeLoss="46.33" rerouteNo="0" devices="tripinfo_134428_411_0 routing_134428_411_0" vType="pkw" speedFactor="1.05" vaporized=""/>
    <tripinfo id="76230_386_0" depart="25204.00" departLane="-23283579#1_0" departPos="4.40" departSpeed="0.00" departDelay="0.00" arrival="25321.00" arrivalLane="297047309#0_0" arrivalPos="91.17" arrivalSpeed="11.37" duration="117.00" routeLength="656.20" waitingTime="25.00" waitingCount="2" stopTime="0.00" timeLoss="42.72" rerouteNo="1" devices="tripinfo_76230_386_0 routing_76230_386_0" vType="pkw" speedFactor="0.89" vaporized=""/>
    <tripinfo id="110248_401_0" depart="25207.00" departLane="-23283579#1_0" departPos="4.40" departSpeed="0.00" departDelay="1.00" arrival="25323.00" arrivalLane="297047309#0_0" arrivalPos="91.17" arrivalSpeed="12.78" duration="116.00" routeLength="656.20" waitingTime="23.00" waitingCount="2" stopTime="0.00" timeLoss="45.74" rerouteNo="1" devices="tripinfo_110248_401_0 routing_110248_401_0" vType="pkw" speedFactor="0.95" vaporized=""/>
    <tripinfo id="91556_392_0" depart="25270.00" departLane="-23283579#1_0" departPos="4.40" departSpeed="0.00" departDelay="0.00" arrival="25330.00" arrivalLane="23840972_0" arrivalPos="97.66" arrivalSpeed="8.00" duration="60.00" routeLength="525.30" waitingTime="1.00" waitingCount="1" stopTime="0.00" timeLoss="16.86" rerouteNo="1" devices="tripinfo_91556_392_0 routing_91556_392_0" vType="pkw" speedFactor="1.09" vaporized=""/>
    <tripinfo id="144617_416_0" depart="25256.00" departLane="22917421#3_0" departPos="4.40" departSpeed="0.00" departDelay="0.00" arrival="25332.00" arrivalLane="186623965#17_0" arrivalPos="143.63" arrivalSpeed="9.49" duration="76.00" routeLength="257.42" waitingTime="33.00" waitingCount="2" stopTime="0.00" timeLoss="44.77" rerouteNo="0" devices="tripinfo_144617_416_0 routing_144617_416_0" vType="pkw" speedFactor="0.76" vaporized=""/>
    <tripinfo id="162497_421_0" depart="25273.00" departLane="22917421#3_0" departPos="4.40" departSpeed="0.00" departDelay="0.00" arrival="25333.00" arrivalLane="186623965#17_0" arrivalPos="143.63" arrivalSpeed="12.61" duration="60.00" routeLength="257.42" waitingTime="20.00" waitingCount="1" stopTime="0.00" timeLoss="38.74" rerouteNo="0" devices="tripinfo_162497_421_0 routing_162497_421_0" vType="pkw" speedFactor="1.11" vaporized=""/>
    <tripinfo id="152801_419_0" depart="25299.00" departLane="-297047307_0" departPos="4.40" departSpeed="0.00" departDelay="0.00" arrival="25333.00" arrivalLane="297047309#0_0" arrivalPos="91.17" arrivalSpeed="15.20" duration="34.00" routeLength="439.92" waitingTime="0.00" waitingCount="0" stopTime="0.00" timeLoss="5.54" rerouteNo="1" devices="tripinfo_152801_419_0 routing_152801_419_0" vType="pkw" speedFactor="1.14" vaporized=""/>
    <tripinfo id="171184_426_0" depart="25326.00" departLane="133081987#0_0" departPos="4.40" departSpeed="0.00" departDelay="0.00" arrival="25344.00" arrivalLane="23283436_0" arrivalPos="65.76" arrivalSpeed="11.13" duration="18.00" routeLength="154.99" waitingTime="0.00" waitingCount="0" stopTime="0.00" timeLoss="4.49" rerouteNo="0" devices="tripinfo_171184_426_0 routing_171184_426_0" vType="pkw" speedFactor="0.85" vaporized=""/>
    <tripinfo id="158136_421_0" depart="25240.00" departLane="28675510#1_0" departPos="4.40" departSpeed="0.00" departDelay="0.00" arrival="25347.00" arrivalLane="323416262_0" arrivalPos="87.54" arrivalSpeed="15.44" duration="107.00" routeLength="1126.93" waitingTime="0.00" waitingCount="0" stopTime="0.00" timeLoss="16.61" rerouteNo="1" devices="tripinfo_158136_421_0 routing_158136_421_0" vType="pkw" speedFactor="1.15" vaporized=""/>
    <tripinfo id="144017_416_0" depart="25348.00" departLane="-353069169#0_0" departPos="4.40" departSpeed="0.00" departDelay="0.00" arrival="25367.00" arrivalLane="323416262_0" arrivalPos="87.54" arrivalSpeed="12.20" duration="19.00" routeLength="175.35" waitingTime="0.00" waitingCount="0" stopTime="0.00" timeLoss="4.91" rerouteNo="0" devices="tripinfo_144017_416_0 routing_144017_416_0" vType="pkw" speedFactor="0.94" vaporized=""/>
    <tripinfo id="145512_416_0" depart="25308.00" departLane="22917421#3_0" departPos="4.40" departSpeed="0.00" departDelay="0.00" arrival="25376.00" arrivalLane="186623965#17_0" arrivalPos="143.63" arrivalSpeed="16.28" duration="68.00" routeLength="257.42" waitingTime="40.00" waitingCount="1" stopTime="0.00" timeLoss="48.48" rerouteNo="0" devices="tripinfo_145512_416_0 routing_145512_416_0" vType="pkw" speedFactor="1.20" vaporized=""/>
    <tripinfo id="166162_424_0" depart="25233.00" departLane="22959550#0_0" departPos="4.40" departSpeed="0.00" departDelay="0.00" arrival="25378.00" arrivalLane="28675510#7_0" arrivalPos="257.94" arrivalSpeed="12.54" duration="145.00" routeLength="903.30" waitingTime="41.00" waitingCount="1" stopTime="0.00" timeLoss="54.98" rerouteNo="1" devices="tripinfo_166162_424_0 routing_166162_424_0" vType="pkw" speedFactor="0.94" vaporized=""/>
    <tripinfo id="134167_411_0" depart="25211.00" departLane="-23283579#1_0" departPos="4.40" departSpeed="0.00" departDelay="0.00" arrival="25380.00" arrivalLane="-186623965#14_0" arrivalPos="159.69" arrivalSpeed="14.68" duration="169.00" routeLength="1526.65" waitingTime="20.00" waitingCount="2" stopTime="0.00" timeLoss="53.55" rerouteNo="1" devices="tripinfo_134167_411_0 routing_134167_411_0" vType="pkw" speedFactor="1.11" vaporized=""/>
    <tripinfo id="156485_420_0" depart="25205.00" departLane="22959552#0_0" departPos="4.40" departSpeed="0.00" departDelay="0.00" arrival="25381.00" arrivalLane="28675510#7_0" arrivalPos="257.94" arrivalSpeed="11.05" duration="176.00" routeLength="1112.54" waitingTime="42.00" waitingCount="2" stopTime="0.00" timeLoss="58.51" rerouteNo="1" devices="tripinfo_156485_420_0 routing_156485_420_0" vType="pkw" speedFactor="0.88" vaporized=""/>
    <tripinfo id="146152_416_0" depart="25210.00" departLane="25166682#0_0" departPos="4.40" departSpeed="0.00" departDelay="0.00" arrival="25383.00" arrivalLane="28675510#7_0" arrivalPos="257.94" arrivalSpeed="15.24" duration="173.00" routeLength="1219.50" waitingTime="43.00" waitingCount="2" stopTime="0.00" timeLoss="76.24" rerouteNo="1" devices="tripinfo_146152_416_0 routing_146152_416_0" vType="pkw" speedFactor="1.12" vaporized=""/>
    <tripinfo id="84611_390_0" depart="25261.00" departLane="-23283579#1_0" departPos="4.40" departSpeed="0.00" departDelay="0.00" arrival="25383.00" arrivalLane="-23648008#0_0" arrivalPos="75.90" arrivalSpeed="15.04" duration="122.00" routeLength="782.02" waitingTime="31.00" waitingCount="2" stopTime="0.00" timeLoss="55.34" rerouteNo="1" devices="tripinfo_84611_390_0 routing_84611_390_0" vType="pkw" speedFactor="1.12" vaporized=""/>
    <tripinfo id="129175_408_0" depart="25255.00" departLane="-23283579#1_0" departPos="4.40" departSpeed="0.00" departDelay="0.00" arrival="25384.00" arrivalLane="323450710#0_0" arrivalPos="95.59" arrivalSpeed="12.34" duration="129.00" routeLength="843.12" waitingTime="28.00" waitingCount="2" stopTime="0.00" timeLoss="48.11" rerouteNo="1" devices="tripinfo_129175_408_0 routing_129175_408_0" vType="pkw" speedFactor="0.98" vaporized=""/>
    <tripinfo id="162890_422_0" depart="25264.00" departLane="8716807#1_0" departPos="4.40" departSpeed="0.00" departDelay="0.00" arrival="25384.00" arrivalLane="28675510#7_0" arrivalPos="257.94" arrivalSpeed="13.24" duration="120.00" routeLength="973.61" waitingTime="16.00" waitingCount="1" stopTime="0.00" timeLoss="32.85" rerouteNo="1" devices="tripinfo_162890_422_0 routing_162890_422_0" vType="pkw" speedFactor="0.99" vaporized=""/>
    <tripinfo id="163043_422_0" depart="25214.00" departLane="-28675510#11_0" departPos="4.40" departSpeed="0.00" departDelay="2.00" arrival="25385.00" arrivalLane="8716827#0_0" arrivalPos="109.12" arrivalSpeed="9.01" duration="171.00" routeLength="1154.53" waitingTime="69.00" waitingCount="3" stopTime="0.00" timeLoss="95.33" rerouteNo="1" devices="tripinfo_163043_422_0 routing_163043_422_0" vType="pkw" speedFactor="1.18" vaporized=""/>
    <tripinfo id="114597_403_0" depart="25201.00" departLane="22917421#3_0" departPos="4.40" departSpeed="0.00" departDelay="0.00" arrival="25388.00" arrivalLane="-186623965#14_0" arrivalPos="159.69" arrivalSpeed="13.41" duration="187.00" routeLength="476.78" waitingTime="135.00" waitingCount="2" stopTime="0.00" timeLoss="148.62" rerouteNo="1" devices="tripinfo_114597_403_0 routing_114597_403_0" vType="pkw" speedFactor="1.02" vaporized=""/>
    <tripinfo id="131243_409_0" depart="25248.00" departLane="-186623965#18_0" departPos="4.40" departSpeed="0.00" departDelay="0.00" arrival="25388.00" arrivalLane="-186623965#14_1" arrivalPos="159.69" arrivalSpeed="14.37" duration="140.00" routeLength="528.65" waitingTime="86.00" waitingCount="1" stopTime="0.00" timeLoss="104.28" rerouteNo="1" devices="tripinfo_131243_409_0 routing_131243_409_0" vType="pkw" speedFactor="1.08" vaporized=""/>
    <tripinfo id="158885_421_0" depart="25220.00" departLane="22917421#3_0" departPos="4.40" departSpeed="0.00" departDelay="0.00" arrival="25390.00" arrivalLane="28675510#7_0" arrivalPos="257.94" arrivalSpeed="10.84" duration="170.00" routeLength="937.03" waitingTime="33.00" waitingCount="3" stopTime="0.00" timeLoss="55.20" rerouteNo="1" devices="tripinfo_158885_421_0 routing_158885_421_0" vType="pkw" speedFactor="0.87" vaporized=""/>
    <tripinfo id="108769_400_0" depart="25356.00" departLane="-186623965#18_0" departPos="4.40" departSpeed="0.00" departDelay="0.00" arrival="25391.00" arrivalLane="-22917421#4_0" arrivalPos="96.26" arrivalSpeed="6.61" duration="35.00" routeLength="263.02" waitingTime="0.00" waitingCount="0" stopTime="0.00" timeLoss="7.86" rerouteNo="0" devices="tripinfo_108769_400_0 routing_108769_400_0" vType="pkw" speedFactor="0.90" vaporized=""/>
    <tripinfo id="139269_413_0" depart="25307.00" departLane="-23283579#1_0" departPos="4.40" departSpeed="0.00" departDelay="0.00" arrival="25393.00" arrivalLane="-297047308_0" arrivalPos="28.52" arrivalSpeed="11.44" duration="86.00" routeLength="517.28" waitingTime="7.00" waitingCount="1" stopTime="0.00" timeLoss="19.22" rerouteNo="1" devices="tripinfo_139269_413_0 routing_139269_413_0" vType="pkw" speedFactor="0.84" vaporized=""/>
    <tripinfo id="152887_419_0" depart="25229.00" departLane="-28675510#11_0" departPos="4.40" departSpeed="0.00" departDelay="0.00" arrival="25395.00" arrivalLane="8716827#0_0" arrivalPos="109.12" arrivalSpeed="7.45" duration="166.00" routeLength="1154.53" waitingTime="50.00" waitingCount="2" stopTime="0.00" timeLoss="75.71" rerouteNo="1" devices="tripinfo_152887_419_0 routing_152887_419_0" vType="pkw" speedFactor="0.98" vaporized=""/>
    <tripinfo id="120970_405_0" depart="25343.00" departLane="-23283579#1_0" departPos="4.40" departSpeed="0.00" departDelay="0.00" arrival="25397.00" arrivalLane="23283470#5_0" arrivalPos="89.27" arrivalSpeed="7.53" duration="54.00" routeLength="393.04" waitingTime="0.00" waitingCount="0" stopTime="0.00" timeLoss="9.88" rerouteNo="1" devices="tripinfo_120970_405_0 routing_120970_405_0" vType="pkw" speedFactor="0.98" vaporized=""/>
    <tripinfo id="166783_424_0" depart="25349.00" departLane="22917421#3_0" departPos="4.40" departSpeed="0.00" departDelay="0.00" arrival="25398.00" arrivalLane="186623965#17_0" arrivalPos="143.63" arrivalSpeed="15.26" duration="49.00" routeLength="257.42" waitingTime="16.00" waitingCount="2" stopTime="0.00" timeLoss="28.70" rerouteNo="0" devices="tripinfo_166783_424_0 routing_166783_424_0" vType="pkw" speedFactor="1.16" vaporized=""/>
    <tripinfo id="119181_405_0" depart="25226.00" departLane="186623965#9_0" departPos="4.40" departSpeed="0.00" departDelay="0.00" arrival="25399.00" arrivalLane="42925825#0_0" arrivalPos="254.17" arrivalSpeed="12.82" duration="173.00" routeLength="418.48" waitingTime="131.00" waitingCount="1" stopTime="0.00" timeLoss="140.26" rerouteNo="0" devices="tripinfo_119181_405_0 routing_119181_405_0" vType="pkw" speedFactor="0.94" vaporized=""/>
    <tripinfo id="133416_410_0" depart="25229.00" departLane="186623965#9_0" departPos="4.40" departSpeed="0.00" departDelay="1.00" arrival="25400.00" arrivalLane="42925825#0_0" arrivalPos="254.17" arrivalSpeed="15.21" duration="171.00" routeLength="418.48" waitingTime="130.00" waitingCount="1" stopTime="0.00" timeLoss="143.80" rerouteNo="0" devices="tripinfo_133416_410_0 routing_133416_410_0" vType="pkw" speedFactor="1.12" vaporized=""/>
    <tripinfo id="174717_427_0" depart="25373.00" departLane="22917421#3_0" departPos="4.40" departSpeed="0.00" departDelay="0.00" arrival="25400.00" arrivalLane="186623965#17_0" arrivalPos="143.63" arrivalSpeed="13.84" duration="27.00" routeLength="257.42" waitingTime="0.00" waitingCount="0" stopTime="0.00" timeLoss="4.56" rerouteNo="0" devices="tripinfo_174717_427_0 routing_174717_427_0" vType="pkw" speedFactor="1.04" vaporized=""/>
    <tripinfo id="126698_407_0" depart="25242.00" departLane="-186623965#18_0" departPos="4.40" departSpeed="0.00" departDelay="1.00" arrival="25405.00" arrivalLane="42925825#0_0" arrivalPos="254.17" arrivalSpeed="11.32" duration="163.00" routeLength="625.62" waitingTime="90.00" waitingCount="2" stopTime="0.00" timeLoss="111.39" rerouteNo="1" devices="tripinfo_126698_407_0 routing_126698_407_0" vType="pkw" speedFactor="0.88" vaporized=""/>
    <tripinfo id="126900_407_0" depart="25239.00" departLane="-186623965#18_0" departPos="4.40" departSpeed="0.00" departDelay="0.00" arrival="25407.00" arrivalLane="42925825#0_0" arrivalPos="254.17" arrivalSpeed="12.76" duration="168.00" routeLength="625.62" waitingTime="93.00" waitingCount="2" stopTime="0.00" timeLoss="119.40" rerouteNo="1" devices="tripinfo_126900_407_0 routing_126900_407_0" vType="pkw" speedFactor="0.94" vaporized=""/>
    <tripinfo id="166776_424_0" depart="25208.00" departLane="-28675510#11_0" departPos="4.40" departSpeed="0.00" departDelay="0.00" arrival="25409.00" arrivalLane="-186623965#14_0" arrivalPos="159.69" arrivalSpeed="14.90" duration="201.00" routeLength="1202.17" waitingTime="65.00" waitingCount="4" stopTime="0.00" timeLoss="100.00" rerouteNo="1" devices="tripinfo_166776_424_0 routing_166776_424_0" vType="pkw" speedFactor="1.13" vaporized=""/>
    <tripinfo id="161216_421_0" depart="25250.00" departLane="-186623965#18_0" departPos="4.40" departSpeed="0.00" departDelay="2.00" arrival="25409.00" arrivalLane="42925825#0_0" arrivalPos="254.17" arrivalSpeed="11.60" duration="159.00" routeLength="625.62" waitingTime="82.00" waitingCount="2" stopTime="0.00" timeLoss="107.06" rerouteNo="1" devices="tripinfo_161216_421_0 routing_161216_421_0" vType="pkw" speedFactor="0.88" vaporized=""/>
    <tripinfo id="159622_421_0" depart="25253.00" departLane="-186623965#18_0" departPos="4.40" departSpeed="0.00" departDelay="2.00" arrival="25410.00" arrivalLane="42925825#0_0" arrivalPos="254.17" arrivalSpeed="13.18" duration="157.00" routeLength="625.62" waitingTime="76.00" waitingCount="3" stopTime="0.00" timeLoss="111.90" rerouteNo="1" devices="tripinfo_159622_421_0 routing_159622_421_0" vType="pkw" speedFactor="1.00" vaporized=""/>
    <tripinfo id="147744_416_0" depart="25272.00" departLane="-186623965#18_0" departPos="4.40" departSpeed="0.00" departDelay="0.00" arrival="25412.00" arrivalLane="42925825#0_0" arrivalPos="254.17" arrivalSpeed="12.09" duration="140.00" routeLength="625.62" waitingTime="65.00" waitingCount="2" stopTime="0.00" timeLoss="91.36" rerouteNo="1" devices="tripinfo_147744_416_0 routing_147744_416_0" vType="pkw" speedFactor="0.93" vaporized=""/>
    <tripinfo id="175709_428_0" depart="25324.00" departLane="-186623965#18_0" departPos="4.40" departSpeed="0.00" departDelay="0.00" arrival="25413.00" arrivalLane="-186623965#14_0" arrivalPos="159.69" arrivalSpeed="12.90" duration="89.00" routeLength="528.65" waitingTime="25.00" waitingCount="3" stopTime="0.00" timeLoss="48.56" rerouteNo="1" devices="tripinfo_175709_428_0 routing_175709_428_0" vType="pkw" speedFactor="0.96" vaporized=""/>
    <tripinfo id="113370_402_0" depart="25249.00" departLane="186623965#9_0" departPos="4.40" departSpeed="0.00" departDelay="0.00" arrival="25416.00" arrivalLane="42925825#0_0" arrivalPos="254.17" arrivalSpeed="12.43" duration="167.00" routeLength="418.48" waitingTime="120.00" waitingCount="2" stopTime="0.00" timeLoss="134.48" rerouteNo="0" devices="tripinfo_113370_402_0 routing_113370_402_0" vType="pkw" speedFactor="0.93" vaporized=""/>
    <tripinfo id="138639_413_0" depart="25314.00" departLane="186623965#9_0" departPos="4.40" departSpeed="0.00" departDelay="0.00" arrival="25416.00" arrivalLane="186623965#17_1" arrivalPos="143.63" arrivalSpeed="14.94" duration="102.00" routeLength="527.61" waitingTime="55.00" waitingCount="2" stopTime="0.00" timeLoss="69.23" rerouteNo="1" devices="tripinfo_138639_413_0 routing_138639_413_0" vType="pkw" speedFactor="1.16" vaporized=""/>
    <tripinfo id="146111_416_0" depart="25221.00" departLane="-28675510#11_0" departPos="4.40" departSpeed="0.00" departDelay="0.00" arrival="25417.00" arrivalLane="-186623965#14_0" arrivalPos="159.69" arrivalSpeed="11.93" duration="196.00" routeLength="1202.17" waitingTime="43.00" waitingCount="2" stopTime="0.00" timeLoss="69.28" rerouteNo="1" devices="tripinfo_146111_416_0 routing_146111_416_0" vType="pkw" speedFactor="0.90" vaporized=""/>
    <tripinfo id="140525_414_0" depart="25221.00" departLane="186623965#9_0" departPos="4.40" departSpeed="0.00" departDelay="0.00" arrival="25417.00" arrivalLane="186623965#17_0" arrivalPos="143.63" arrivalSpeed="15.02" duration="196.00" routeLength="527.61" waitingTime="146.00" waitingCount="2" stopTime="0.00" timeLoss="162.62" rerouteNo="1" devices="tripinfo_140525_414_0 routing_140525_414_0" vType="pkw" speedFactor="1.15" vaporized=""/>
    <tripinfo id="154212_420_0" depart="25232.00" departLane="-28675510#11_0" departPos="4.40" departSpeed="0.00" departDelay="0.00" arrival="25418.00" arrivalLane="-186623965#14_0" arrivalPos="159.69" arrivalSpeed="13.41" duration="186.00" routeLength="1202.17" waitingTime="39.00" waitingCount="2" stopTime="0.00" timeLoss="76.93" rerouteNo="1" devices="tripinfo_154212_420_0 routing_154212_420_0" vType="pkw" speedFactor="1.04" vaporized=""/>
    <tripinfo id="145282_416_0" depart="25259.00" departLane="186623965#9_0" departPos="4.40" departSpeed="0.00" departDelay="0.00" arrival="25418.00" arrivalLane="42925825#0_0" arrivalPos="254.17" arrivalSpeed="12.41" duration="159.00" routeLength="418.48" waitingTime="110.00" waitingCount="2" stopTime="0.00" timeLoss="126.75" rerouteNo="0" devices="tripinfo_145282_416_0 routing_145282_416_0" vType="pkw" speedFactor="0.95" vaporized=""/>
    <tripinfo id="148039_417_0" depart="25331.00" departLane="-186623965#16_0" departPos="4.40" departSpeed="0.00" departDelay="0.00" arrival="25419.00" arrivalLane="186623965#17_1" arrivalPos="143.63" arrivalSpeed="14.25" duration="88.00" routeLength="545.21" waitingTime="33.00" waitingCount="1" stopTime="0.00" timeLoss="49.49" rerouteNo="1" devices="tripinfo_148039_417_0 routing_148039_417_0" vType="pkw" speedFactor="1.04" vaporized=""/>
    <tripinfo id="117517_404_0" depart="25224.00" departLane="-28675510#11_0" departPos="4.40" departSpeed="0.00" departDelay="0.00" arrival="25420.00" arrivalLane="-186623965#14_1" arrivalPos="159.69" arrivalSpeed="15.16" duration="196.00" routeLength="1202.17" waitingTime="43.00" waitingCount="3" stopTime="0.00" timeLoss="98.20" rerouteNo="1" devices="tripinfo_117517_404_0 routing_117517_404_0" vType="pkw" speedFactor="1.16" vaporized=""/>