<?xml version="1.0" encoding="UTF-8"?>

<!-- generated on 12/08/21 21:21:54 by Eclipse SUMO sumo Version 1.7.0
<configuration xmlns:xsi="http://www.w3.org/2001/XMLSchema-instance" xsi:noNamespaceSchemaLocation="http://sumo.dlr.de/xsd/sumoConfiguration.xsd">

    <input>
        <net-file value="C:\Users\longs\Desktop\RESCO-main\environments/cologne8/cologne8.net.xml"/>
        <route-files value="C:\Users\longs\Desktop\RESCO-main\environments/cologne8/cologne8.rou.xml"/>
    </input>

    <output>
        <tripinfo-output value="C:\Users\longs\Desktop\RESCO-main\logs\STOCHASTIC-tr1-cologne8-0-mplight-wait\tripinfo_37.xml"/>
        <tripinfo-output.write-unfinished value="true"/>
    </output>

    <time>
        <begin value="25200"/>
        <end value="28800"/>
    </time>

    <processing>
        <time-to-teleport value="-1"/>
    </processing>

    <report>
        <no-warnings value="true"/>
        <no-step-log value="true"/>
    </report>

    <traci_server>
        <remote-port value="52663"/>
    </traci_server>

    <random_number>
        <random value="true"/>
    </random_number>

</configuration>
-->

<tripinfos xmlns:xsi="http://www.w3.org/2001/XMLSchema-instance" xsi:noNamespaceSchemaLocation="http://sumo.dlr.de/xsd/tripinfo_file.xsd">
    <tripinfo id="142890_415_0" depart="25218.00" departLane="-23283579#1_0" departPos="4.40" departSpeed="0.00" departDelay="0.00" arrival="25225.00" arrivalLane="23283579#1_0" arrivalPos="22.22" arrivalSpeed="11.56" duration="7.00" routeLength="44.72" waitingTime="0.00" waitingCount="0" stopTime="0.00" timeLoss="3.62" rerouteNo="0" devices="tripinfo_142890_415_0 routing_142890_415_0" vType="pkw" speedFactor="0.97" vaporized=""/>
    <tripinfo id="137312_412_0" depart="25200.00" departLane="-23283579#1_0" departPos="4.40" departSpeed="0.00" departDelay="0.00" arrival="25234.00" arrivalLane="23283436_0" arrivalPos="65.76" arrivalSpeed="13.18" duration="34.00" routeLength="404.67" waitingTime="0.00" waitingCount="0" stopTime="0.00" timeLoss="4.84" rerouteNo="1" devices="tripinfo_137312_412_0 routing_137312_412_0" vType="pkw" speedFactor="1.02" vaporized=""/>
    <tripinfo id="114597_403_0" depart="25201.00" departLane="22917421#3_0" departPos="4.40" departSpeed="0.00" departDelay="0.00" arrival="25247.00" arrivalLane="-186623965#14_0" arrivalPos="159.69" arrivalSpeed="13.75" duration="46.00" routeLength="476.78" waitingTime="0.00" waitingCount="0" stopTime="0.00" timeLoss="8.79" rerouteNo="1" devices="tripinfo_114597_403_0 routing_114597_403_0" vType="pkw" speedFactor="1.05" vaporized=""/>
    <tripinfo id="155570_420_0" depart="25200.00" departLane="-28675510#11_0" departPos="4.40" departSpeed="0.00" departDelay="0.00" arrival="25253.00" arrivalLane="28675510#7_0" arrivalPos="257.94" arrivalSpeed="15.22" duration="53.00" routeLength="516.12" waitingTime="9.00" waitingCount="1" stopTime="0.00" timeLoss="19.52" rerouteNo="0" devices="tripinfo_155570_420_0 routing_155570_420_0" vType="pkw" speedFactor="1.11" vaporized=""/>
    <tripinfo id="134603_411_0" depart="25206.00" departLane="-28675510#11_0" departPos="4.40" departSpeed="0.00" departDelay="0.00" arrival="25257.00" arrivalLane="28675510#7_0" arrivalPos="257.94" arrivalSpeed="12.76" duration="51.00" routeLength="516.12" waitingTime="2.00" waitingCount="1" stopTime="0.00" timeLoss="12.01" rerouteNo="0" devices="tripinfo_134603_411_0 routing_134603_411_0" vType="pkw" speedFactor="0.96" vaporized=""/>
    <tripinfo id="140143_414_0" depart="25211.00" departLane="-28675510#11_0" departPos="4.40" departSpeed="0.00" departDelay="1.00" arrival="25260.00" arrivalLane="28675510#7_0" arrivalPos="257.94" arrivalSpeed="12.80" duration="49.00" routeLength="516.12" waitingTime="0.00" waitingCount="0" stopTime="0.00" timeLoss="10.50" rerouteNo="0" devices="tripinfo_140143_414_0 routing_140143_414_0" vType="pkw" speedFactor="0.97" vaporized=""/>
    <tripinfo id="140525_414_0" depart="25221.00" departLane="186623965#9_0" departPos="4.40" departSpeed="0.00" departDelay="0.00" arrival="25267.00" arrivalLane="186623965#17_0" arrivalPos="143.63" arrivalSpeed="13.88" duration="46.00" routeLength="527.61" waitingTime="0.00" waitingCount="0" stopTime="0.00" timeLoss="7.94" rerouteNo="1" devices="tripinfo_140525_414_0 routing_140525_414_0" vType="pkw" speedFactor="1.01" vaporized=""/>
    <tripinfo id="76230_386_0" depart="25204.00" departLane="-23283579#1_0" departPos="4.40" departSpeed="0.00" departDelay="0.00" arrival="25269.00" arrivalLane="297047309#0_0" arrivalPos="91.17" arrivalSpeed="16.18" duration="65.00" routeLength="656.20" waitingTime="0.00" waitingCount="0" stopTime="0.00" timeLoss="8.33" rerouteNo="1" devices="tripinfo_76230_386_0 routing_76230_386_0" vType="pkw" speedFactor="1.17" vaporized=""/>
    <tripinfo id="137959_412_0" depart="25209.00" departLane="-186623965#18_0" departPos="4.40" departSpeed="0.00" departDelay="0.00" arrival="25270.00" arrivalLane="-22917421#4_0" arrivalPos="96.26" arrivalSpeed="7.28" duration="61.00" routeLength="263.02" waitingTime="27.00" waitingCount="1" stopTime="0.00" timeLoss="36.73" rerouteNo="0" devices="tripinfo_137959_412_0 routing_137959_412_0" vType="pkw" speedFactor="1.00" vaporized=""/>
    <tripinfo id="161942_421_0" depart="25233.00" departLane="-42925825#2_0" departPos="4.40" departSpeed="0.00" departDelay="0.00" arrival="25289.00" arrivalLane="42925825#0_0" arrivalPos="254.17" arrivalSpeed="11.09" duration="56.00" routeLength="508.64" waitingTime="2.00" waitingCount="1" stopTime="0.00" timeLoss="10.99" rerouteNo="0" devices="tripinfo_161942_421_0 routing_161942_421_0" vType="pkw" speedFactor="0.83" vaporized=""/>
    <tripinfo id="111571_401_0" depart="25267.00" departLane="-353069169#0_0" departPos="4.40" departSpeed="0.00" departDelay="0.00" arrival="25296.00" arrivalLane="24487264_0" arrivalPos="166.35" arrivalSpeed="12.58" duration="29.00" routeLength="286.19" waitingTime="0.00" waitingCount="0" stopTime="0.00" timeLoss="5.34" rerouteNo="1" devices="tripinfo_111571_401_0 routing_111571_401_0" vType="pkw" speedFactor="0.92" vaporized=""/>
    <tripinfo id="110248_401_0" depart="25207.00" departLane="-23283579#1_0" departPos="4.40" departSpeed="0.00" departDelay="1.00" arrival="25310.00" arrivalLane="297047309#0_0" arrivalPos="91.17" arrivalSpeed="12.60" duration="103.00" routeLength="656.20" waitingTime="17.00" waitingCount="1" stopTime="0.00" timeLoss="30.56" rerouteNo="1" devices="tripinfo_110248_401_0 routing_110248_401_0" vType="pkw" speedFactor="0.91" vaporized=""/>
    <tripinfo id="150593_418_0" depart="25297.00" departLane="22959552#0_0" departPos="4.40" departSpeed="0.00" departDelay="0.00" arrival="25310.00" arrivalLane="22959552#0_0" arrivalPos="91.39" arrivalSpeed="7.99" duration="13.00" routeLength="86.99" waitingTime="0.00" waitingCount="0" stopTime="0.00" timeLoss="1.90" rerouteNo="1" devices="tripinfo_150593_418_0 routing_150593_418_0" vType="pkw" speedFactor="1.00" vaporized=""/>
    <tripinfo id="121484_406_0" depart="25268.00" departLane="-23283579#1_0" departPos="4.40" departSpeed="0.00" departDelay="0.00" arrival="25314.00" arrivalLane="133081987#3_0" arrivalPos="99.94" arrivalSpeed="13.78" duration="46.00" routeLength="434.85" waitingTime="3.00" waitingCount="1" stopTime="0.00" timeLoss="14.83" rerouteNo="1" devices="tripinfo_121484_406_0 routing_121484_406_0" vType="pkw" speedFactor="1.03" vaporized=""/>
    <tripinfo id="127809_407_0" depart="25258.00" departLane="-23283579#1_0" departPos="4.40" departSpeed="0.00" departDelay="1.00" arrival="25315.00" arrivalLane="23285888#0_0" arrivalPos="109.58" arrivalSpeed="7.35" duration="57.00" routeLength="410.95" waitingTime="0.00" waitingCount="0" stopTime="0.00" timeLoss="7.30" rerouteNo="1" devices="tripinfo_127809_407_0 routing_127809_407_0" vType="pkw" speedFactor="0.91" vaporized=""/>
    <tripinfo id="91556_392_0" depart="25270.00" departLane="-23283579#1_0" departPos="4.40" departSpeed="0.00" departDelay="0.00" arrival="25336.00" arrivalLane="23840972_0" arrivalPos="97.66" arrivalSpeed="7.00" duration="66.00" routeLength="525.30" waitingTime="2.00" waitingCount="1" stopTime="0.00" timeLoss="14.26" rerouteNo="1" devices="tripinfo_91556_392_0 routing_91556_392_0" vType="pkw" speedFactor="0.91" vaporized=""/>
    <tripinfo id="163799_422_0" depart="25256.00" departLane="-186623965#18_0" departPos="4.40" departSpeed="0.00" departDelay="1.00" arrival="25338.00" arrivalLane="-22917421#4_0" arrivalPos="96.26" arrivalSpeed="9.01" duration="82.00" routeLength="263.02" waitingTime="40.00" waitingCount="3" stopTime="0.00" timeLoss="60.71" rerouteNo="0" devices="tripinfo_163799_422_0 routing_163799_422_0" vType="pkw" speedFactor="1.16" vaporized=""/>
    <tripinfo id="131243_409_0" depart="25248.00" departLane="-186623965#18_0" departPos="4.40" departSpeed="0.00" departDelay="0.00" arrival="25343.00" arrivalLane="-186623965#14_0" arrivalPos="159.69" arrivalSpeed="11.80" duration="95.00" routeLength="528.65" waitingTime="35.00" waitingCount="2" stopTime="0.00" timeLoss="49.37" rerouteNo="1" devices="tripinfo_131243_409_0 routing_131243_409_0" vType="pkw" speedFactor="0.85" vaporized=""/>
    <tripinfo id="171184_426_0" depart="25326.00" departLane="133081987#0_0" departPos="4.40" departSpeed="0.00" departDelay="0.00" arrival="25344.00" arrivalLane="23283436_0" arrivalPos="65.76" arrivalSpeed="11.95" duration="18.00" routeLength="154.99" waitingTime="0.00" waitingCount="0" stopTime="0.00" timeLoss="4.46" rerouteNo="0" devices="tripinfo_171184_426_0 routing_171184_426_0" vType="pkw" speedFactor="0.86" vaporized=""/>
    <tripinfo id="119181_405_0" depart="25226.00" departLane="186623965#9_0" departPos="4.40" departSpeed="0.00" departDelay="0.00" arrival="25346.00" arrivalLane="42925825#0_0" arrivalPos="254.17" arrivalSpeed="13.22" duration="120.00" routeLength="418.48" waitingTime="79.00" waitingCount="1" stopTime="0.00" timeLoss="87.96" rerouteNo="0" devices="tripinfo_119181_405_0 routing_119181_405_0" vType="pkw" speedFactor="0.96" vaporized=""/>
    <tripinfo id="133416_410_0" depart="25228.00" departLane="186623965#9_0" departPos="4.40" departSpeed="0.00" departDelay="0.00" arrival="25347.00" arrivalLane="42925825#0_0" arrivalPos="254.17" arrivalSpeed="13.72" duration="119.00" routeLength="418.48" waitingTime="79.00" waitingCount="1" stopTime="0.00" timeLoss="88.38" rerouteNo="0" devices="tripinfo_133416_410_0 routing_133416_410_0" vType="pkw" speedFactor="0.99" vaporized=""/>
    <tripinfo id="113370_402_0" depart="25249.00" departLane="186623965#9_0" departPos="4.40" departSpeed="0.00" departDelay="0.00" arrival="25349.00" arrivalLane="42925825#0_0" arrivalPos="254.17" arrivalSpeed="13.83" duration="100.00" routeLength="418.48" waitingTime="57.00" waitingCount="1" stopTime="0.00" timeLoss="69.82" rerouteNo="0" devices="tripinfo_113370_402_0 routing_113370_402_0" vType="pkw" speedFactor="1.02" vaporized=""/>
    <tripinfo id="141355_415_0" depart="25232.00" departLane="-186623965#18_0" departPos="4.40" departSpeed="0.00" departDelay="0.00" arrival="25353.00" arrivalLane="42925825#0_0" arrivalPos="254.17" arrivalSpeed="14.49" duration="121.00" routeLength="625.62" waitingTime="56.00" waitingCount="3" stopTime="0.00" timeLoss="77.56" rerouteNo="1" devices="tripinfo_141355_415_0 routing_141355_415_0" vType="pkw" speedFactor="1.06" vaporized=""/>
    <tripinfo id="131071_409_0" depart="25236.00" departLane="-186623965#18_0" departPos="4.40" departSpeed="0.00" departDelay="0.00" arrival="25356.00" arrivalLane="42925825#0_0" arrivalPos="254.17" arrivalSpeed="12.34" duration="120.00" routeLength="625.62" waitingTime="52.00" waitingCount="3" stopTime="0.00" timeLoss="73.25" rerouteNo="1" devices="tripinfo_131071_409_0 routing_131071_409_0" vType="pkw" speedFactor="0.98" vaporized=""/>
    <tripinfo id="126900_407_0" depart="25239.00" departLane="-186623965#18_0" departPos="4.40" departSpeed="0.00" departDelay="0.00" arrival="25357.00" arrivalLane="42925825#0_0" arrivalPos="254.17" arrivalSpeed="12.68" duration="118.00" routeLength="625.62" waitingTime="44.00" waitingCount="3" stopTime="0.00" timeLoss="72.46" rerouteNo="1" devices="tripinfo_126900_407_0 routing_126900_407_0" vType="pkw" speedFactor="0.99" vaporized=""/>
    <tripinfo id="166162_424_0" depart="25233.00" departLane="22959550#0_0" departPos="4.40" departSpeed="0.00" departDelay="0.00" arrival="25360.00" arrivalLane="28675510#7_0" arrivalPos="257.94" arrivalSpeed="11.64" duration="127.00" routeLength="903.30" waitingTime="21.00" waitingCount="1" stopTime="0.00" timeLoss="34.80" rerouteNo="1" devices="tripinfo_166162_424_0 routing_166162_424_0" vType="pkw" speedFactor="0.92" vaporized=""/>
    <tripinfo id="126698_407_0" depart="25241.00" departLane="-186623965#18_0" departPos="4.40" departSpeed="0.00" departDelay="0.00" arrival="25361.00" arrivalLane="42925825#0_0" arrivalPos="254.17" arrivalSpeed="11.65" duration="120.00" routeLength="625.62" waitingTime="41.00" waitingCount="3" stopTime="0.00" timeLoss="68.85" rerouteNo="1" devices="tripinfo_126698_407_0 routing_126698_407_0" vType="pkw" speedFactor="0.89" vaporized=""/>
    <tripinfo id="84611_390_0" depart="25261.00" departLane="-23283579#1_0" departPos="4.40" departSpeed="0.00" departDelay="0.00" arrival="25361.00" arrivalLane="-23648008#0_0" arrivalPos="75.90" arrivalSpeed="14.01" duration="100.00" routeLength="782.02" waitingTime="10.00" waitingCount="2" stopTime="0.00" timeLoss="28.91" rerouteNo="1" devices="tripinfo_84611_390_0 routing_84611_390_0" vType="pkw" speedFactor="1.06" vaporized=""/>
    <tripinfo id="156485_420_0" depart="25205.00" departLane="22959552#0_0" departPos="4.40" departSpeed="0.00" departDelay="0.00" arrival="25362.00" arrivalLane="28675510#7_0" arrivalPos="257.94" arrivalSpeed="12.04" duration="157.00" routeLength="1112.54" waitingTime="20.00" waitingCount="2" stopTime="0.00" timeLoss="39.88" rerouteNo="1" devices="tripinfo_156485_420_0 routing_156485_420_0" vType="pkw" speedFactor="0.88" vaporized=""/>
    <tripinfo id="161216_421_0" depart="25251.00" departLane="-186623965#18_0" departPos="4.40" departSpeed="0.00" departDelay="3.00" arrival="25363.00" arrivalLane="42925825#0_0" arrivalPos="254.17" arrivalSpeed="13.47" duration="112.00" routeLength="625.62" waitingTime="34.00" waitingCount="4" stopTime="0.00" timeLoss="65.10" rerouteNo="1" devices="tripinfo_161216_421_0 routing_161216_421_0" vType="pkw" speedFactor="0.98" vaporized=""/>
    <tripinfo id="129175_408_0" depart="25255.00" departLane="-23283579#1_0" departPos="4.40" departSpeed="0.00" departDelay="0.00" arrival="25363.00" arrivalLane="323450710#0_0" arrivalPos="95.59" arrivalSpeed="12.83" duration="108.00" routeLength="843.12" waitingTime="16.00" waitingCount="1" stopTime="0.00" timeLoss="29.22" rerouteNo="1" devices="tripinfo_129175_408_0 routing_129175_408_0" vType="pkw" speedFactor="1.01" vaporized=""/>
    <tripinfo id="135663_411_0" depart="25217.00" departLane="-28675510#11_0" departPos="4.40" departSpeed="0.00" departDelay="3.00" arrival="25365.00" arrivalLane="28675510#7_0" arrivalPos="257.94" arrivalSpeed="12.69" duration="148.00" routeLength="516.12" waitingTime="93.00" waitingCount="2" stopTime="0.00" timeLoss="108.67" rerouteNo="0" devices="tripinfo_135663_411_0 routing_135663_411_0" vType="pkw" speedFactor="0.97" vaporized=""/>
    <tripinfo id="144017_416_0" depart="25348.00" departLane="-353069169#0_0" departPos="4.40" departSpeed="0.00" departDelay="0.00" arrival="25365.00" arrivalLane="323416262_0" arrivalPos="87.54" arrivalSpeed="14.38" duration="17.00" routeLength="175.35" waitingTime="0.00" waitingCount="0" stopTime="0.00" timeLoss="4.48" rerouteNo="0" devices="tripinfo_144017_416_0 routing_144017_416_0" vType="pkw" speedFactor="1.09" vaporized=""/>
    <tripinfo id="175709_428_0" depart="25324.00" departLane="-186623965#18_0" departPos="4.40" departSpeed="0.00" departDelay="0.00" arrival="25366.00" arrivalLane="-186623965#14_0" arrivalPos="159.69" arrivalSpeed="14.20" duration="42.00" routeLength="528.65" waitingTime="0.00" waitingCount="0" stopTime="0.00" timeLoss="5.12" rerouteNo="1" devices="tripinfo_175709_428_0 routing_175709_428_0" vType="pkw" speedFactor="1.05" vaporized=""/>
    <tripinfo id="149045_417_0" depart="25220.00" departLane="-28675510#11_0" departPos="4.40" departSpeed="0.00" departDelay="3.00" arrival="25367.00" arrivalLane="28675510#7_0" arrivalPos="257.94" arrivalSpeed="12.02" duration="147.00" routeLength="516.12" waitingTime="91.00" waitingCount="2" stopTime="0.00" timeLoss="107.12" rerouteNo="0" devices="tripinfo_149045_417_0 routing_149045_417_0" vType="pkw" speedFactor="0.95" vaporized=""/>
    <tripinfo id="138070_412_0" depart="25229.00" departLane="22917421#3_0" departPos="4.40" departSpeed="0.00" departDelay="0.00" arrival="25371.00" arrivalLane="186623965#17_0" arrivalPos="143.63" arrivalSpeed="10.53" duration="142.00" routeLength="257.42" waitingTime="106.00" waitingCount="1" stopTime="0.00" timeLoss="112.55" rerouteNo="0" devices="tripinfo_138070_412_0 routing_138070_412_0" vType="pkw" speedFactor="0.81" vaporized=""/>
    <tripinfo id="153496_420_0" depart="25232.00" departLane="22917421#3_0" departPos="4.40" departSpeed="0.00" departDelay="0.00" arrival="25372.00" arrivalLane="186623965#17_0" arrivalPos="143.63" arrivalSpeed="12.85" duration="140.00" routeLength="257.42" waitingTime="106.00" waitingCount="1" stopTime="0.00" timeLoss="119.19" rerouteNo="0" devices="tripinfo_153496_420_0 routing_153496_420_0" vType="pkw" speedFactor="1.13" vaporized=""/>
    <tripinfo id="145282_416_0" depart="25259.00" departLane="186623965#9_0" departPos="4.40" departSpeed="0.00" departDelay="0.00" arrival="25372.00" arrivalLane="42925825#0_0" arrivalPos="254.17" arrivalSpeed="16.01" duration="113.00" routeLength="418.48" waitingTime="72.00" waitingCount="2" stopTime="0.00" timeLoss="87.96" rerouteNo="0" devices="tripinfo_145282_416_0 routing_145282_416_0" vType="pkw" speedFactor="1.22" vaporized=""/>
    <tripinfo id="155353_420_0" depart="25235.00" departLane="22917421#3_0" departPos="4.40" departSpeed="0.00" departDelay="1.00" arrival="25374.00" arrivalLane="186623965#17_0" arrivalPos="143.63" arrivalSpeed="12.23" duration="139.00" routeLength="257.42" waitingTime="104.00" waitingCount="1" stopTime="0.00" timeLoss="113.80" rerouteNo="0" devices="tripinfo_155353_420_0 routing_155353_420_0" vType="pkw" speedFactor="0.94" vaporized=""/>
    <tripinfo id="159622_421_0" depart="25254.00" departLane="-186623965#18_0" departPos="4.40" departSpeed="0.00" departDelay="3.00" arrival="25376.00" arrivalLane="42925825#0_0" arrivalPos="254.17" arrivalSpeed="14.36" duration="122.00" routeLength="625.62" waitingTime="42.00" waitingCount="5" stopTime="0.00" timeLoss="78.52" rerouteNo="1" devices="tripinfo_159622_421_0 routing_159622_421_0" vType="pkw" speedFactor="1.04" vaporized=""/>
    <tripinfo id="162890_422_0" depart="25264.00" departLane="8716807#1_0" departPos="4.40" departSpeed="0.00" departDelay="0.00" arrival="25377.00" arrivalLane="28675510#7_0" arrivalPos="257.94" arrivalSpeed="12.33" duration="113.00" routeLength="973.61" waitingTime="11.00" waitingCount="1" stopTime="0.00" timeLoss="22.38" rerouteNo="1" devices="tripinfo_162890_422_0 routing_162890_422_0" vType="pkw" speedFactor="0.95" vaporized=""/>
    <tripinfo id="118788_405_0" depart="25247.00" departLane="22917421#3_0" departPos="4.40" departSpeed="0.00" departDelay="0.00" arrival="25378.00" arrivalLane="186623965#17_0" arrivalPos="143.63" arrivalSpeed="13.78" duration="131.00" routeLength="257.42" waitingTime="99.00" waitingCount="1" stopTime="0.00" timeLoss="107.41" rerouteNo="0" devices="tripinfo_118788_405_0 routing_118788_405_0" vType="pkw" speedFactor="1.02" vaporized=""/>
    <tripinfo id="144617_416_0" depart="25256.00" departLane="22917421#3_0" departPos="4.40" departSpeed="0.00" departDelay="0.00" arrival="25379.00" arrivalLane="186623965#17_0" arrivalPos="143.63" arrivalSpeed="14.60" duration="123.00" routeLength="257.42" waitingTime="91.00" waitingCount="1" stopTime="0.00" timeLoss="101.16" rerouteNo="0" devices="tripinfo_144617_416_0 routing_144617_416_0" vType="pkw" speedFactor="1.08" vaporized=""/>
    <tripinfo id="174787_427_0" depart="25287.00" departLane="22959550#3_0" departPos="4.40" departSpeed="0.00" departDelay="0.00" arrival="25379.00" arrivalLane="28675510#7_0" arrivalPos="257.94" arrivalSpeed="13.56" duration="92.00" routeLength="757.45" waitingTime="9.00" waitingCount="1" stopTime="0.00" timeLoss="23.95" rerouteNo="1" devices="tripinfo_174787_427_0 routing_174787_427_0" vType="pkw" speedFactor="0.99" vaporized=""/>
    <tripinfo id="147744_416_0" depart="25272.00" departLane="-186623965#18_0" departPos="4.40" departSpeed="0.00" departDelay="0.00" arrival="25380.00" arrivalLane="42925825#0_0" arrivalPos="254.17" arrivalSpeed="12.94" duration="108.00" routeLength="625.62" waitingTime="34.00" waitingCount="2" stopTime="0.00" timeLoss="59.09" rerouteNo="1" devices="tripinfo_147744_416_0 routing_147744_416_0" vType="pkw" speedFactor="0.93" vaporized=""/>
    <tripinfo id="146152_416_0" depart="25210.00" departLane="25166682#0_0" departPos="4.40" departSpeed="0.00" departDelay="0.00" arrival="25381.00" arrivalLane="28675510#7_0" arrivalPos="257.94" arrivalSpeed="13.26" duration="171.00" routeLength="1219.50" waitingTime="37.00" waitingCount="1" stopTime="0.00" timeLoss="60.09" rerouteNo="1" devices="tripinfo_146152_416_0 routing_146152_416_0" vType="pkw" speedFactor="0.98" vaporized=""/>
    <tripinfo id="162497_421_0" depart="25273.00" departLane="22917421#3_0" departPos="4.40" departSpeed="0.00" departDelay="0.00" arrival="25382.00" arrivalLane="186623965#17_0" arrivalPos="143.63" arrivalSpeed="13.20" duration="109.00" routeLength="257.42" waitingTime="75.00" waitingCount="1" stopTime="0.00" timeLoss="85.01" rerouteNo="0" devices="tripinfo_162497_421_0 routing_162497_421_0" vType="pkw" speedFactor="1.00" vaporized=""/>
    <tripinfo id="146391_416_0" depart="25313.00" departLane="-28675510#0_0" departPos="4.40" departSpeed="0.00" departDelay="0.00" arrival="25382.00" arrivalLane="28675510#7_0" arrivalPos="257.94" arrivalSpeed="13.79" duration="69.00" routeLength="752.27" waitingTime="6.00" waitingCount="1" stopTime="0.00" timeLoss="16.18" rerouteNo="1" devices="tripinfo_146391_416_0 routing_146391_416_0" vType="pkw" speedFactor="1.03" vaporized=""/>
    <tripinfo id="148207_417_0" depart="25320.00" departLane="-186623965#18_0" departPos="4.40" departSpeed="0.00" departDelay="0.00" arrival="25384.00" arrivalLane="42925825#0_0" arrivalPos="254.17" arrivalSpeed="12.72" duration="64.00" routeLength="625.62" waitingTime="3.00" waitingCount="1" stopTime="0.00" timeLoss="16.81" rerouteNo="1" devices="tripinfo_148207_417_0 routing_148207_417_0" vType="pkw" speedFactor="0.97" vaporized=""/>
    <tripinfo id="166776_424_0" depart="25209.00" departLane="-28675510#11_0" departPos="4.40" departSpeed="0.00" departDelay="1.00" arrival="25385.00" arrivalLane="-186623965#14_0" arrivalPos="159.69" arrivalSpeed="13.08" duration="176.00" routeLength="1202.17" waitingTime="39.00" waitingCount="2" stopTime="0.00" timeLoss="58.33" rerouteNo="1" devices="tripinfo_166776_424_0 routing_166776_424_0" vType="pkw" speedFactor="0.97" vaporized=""/>
    <tripinfo id="134428_411_0" depart="25237.00" departLane="-28675510#11_0" departPos="4.40" departSpeed="0.00" departDelay="0.00" arrival="25388.00" arrivalLane="28675510#7_0" arrivalPos="257.94" arrivalSpeed="11.98" duration="151.00" routeLength="516.12" waitingTime="82.00" waitingCount="2" stopTime="0.00" timeLoss="108.70" rerouteNo="0" devices="tripinfo_134428_411_0 routing_134428_411_0" vType="pkw" speedFactor="0.89" vaporized=""/>
    <tripinfo id="152801_419_0" depart="25299.00" departLane="-297047307_0" departPos="4.40" departSpeed="0.00" departDelay="0.00" arrival="25388.00" arrivalLane="297047309#0_0" arrivalPos="91.17" arrivalSpeed="16.33" duration="89.00" routeLength="439.92" waitingTime="42.00" waitingCount="2" stopTime="0.00" timeLoss="61.40" rerouteNo="1" devices="tripinfo_152801_419_0 routing_152801_419_0" vType="pkw" speedFactor="1.18" vaporized=""/>
    <tripinfo id="138639_413_0" depart="25314.00" departLane="186623965#9_0" departPos="4.40" departSpeed="0.00" departDelay="0.00" arrival="25388.00" arrivalLane="186623965#17_0" arrivalPos="143.63" arrivalSpeed="13.85" duration="74.00" routeLength="527.61" waitingTime="25.00" waitingCount="1" stopTime="0.00" timeLoss="35.53" rerouteNo="1" devices="tripinfo_138639_413_0 routing_138639_413_0" vType="pkw" speedFactor="1.00" vaporized=""/>
    <tripinfo id="148039_417_0" depart="25331.00" departLane="-186623965#16_0" departPos="4.40" departSpeed="0.00" departDelay="0.00" arrival="25391.00" arrivalLane="186623965#17_1" arrivalPos="143.63" arrivalSpeed="10.92" duration="60.00" routeLength="545.21" waitingTime="3.00" waitingCount="1" stopTime="0.00" timeLoss="14.73" rerouteNo="1" devices="tripinfo_148039_417_0 routing_148039_417_0" vType="pkw" speedFactor="0.87" vaporized=""/>
    <tripinfo id="120970_405_0" depart="25343.00" departLane="-23283579#1_0" departPos="4.40" departSpeed="0.00" departDelay="0.00" arrival="25393.00" arrivalLane="23283470#5_0" arrivalPos="89.27" arrivalSpeed="7.81" duration="50.00" routeLength="393.04" waitingTime="0.00" waitingCount="0" stopTime="0.00" timeLoss="6.40" rerouteNo="1" devices="tripinfo_120970_405_0 routing_120970_405_0" vType="pkw" speedFactor="0.99" vaporized=""/>
    <tripinfo id="108769_400_0" depart="25356.00" departLane="-186623965#18_0" departPos="4.40" departSpeed="0.00" departDelay="0.00" arrival="25394.00" arrivalLane="-22917421#4_0" arrivalPos="96.26" arrivalSpeed="8.06" duration="38.00" routeLength="263.02" waitingTime="1.00" waitingCount="1" stopTime="0.00" timeLoss="13.10" rerouteNo="0" devices="tripinfo_108769_400_0 routing_108769_400_0" vType="pkw" speedFactor="1.00" vaporized=""/>
    <tripinfo id="139269_413_0" depart="25307.00" departLane="-23283579#1_0" departPos="4.40" departSpeed="0.00" departDelay="0.00" arrival="25398.00" arrivalLane="-297047308_0" arrivalPos="28.52" arrivalSpeed="12.86" duration="91.00" routeLength="517.28" waitingTime="30.00" waitingCount="1" stopTime="0.00" timeLoss="40.38" rerouteNo="1" devices="tripinfo_139269_413_0 routing_139269_413_0" vType="pkw" speedFactor="1.10" vaporized=""/>
    <tripinfo id="96268_394_0" depart="25369.00" departLane="-186623965#18_0" departPos="4.40" departSpeed="0.00" departDelay="0.00" arrival="25400.00" arrivalLane="-22917421#4_0" arrivalPos="96.26" arrivalSpeed="7.26" duration="31.00" routeLength="263.02" waitingTime="0.00" waitingCount="0" stopTime="0.00" timeLoss="4.40" rerouteNo="0" devices="tripinfo_96268_394_0 routing_96268_394_0" vType="pkw" speedFactor="0.92" vaporized=""/>
    <tripinfo id="157572_421_0" depart="25303.00" departLane="23283470#0_0" departPos="4.40" departSpeed="0.00" departDelay="0.00" arrival="25404.00" arrivalLane="323416262_0" arrivalPos="87.54" arrivalSpeed="13.65" duration="101.00" routeLength="994.79" waitingTime="0.00" waitingCount="0" stopTime="0.00" timeLoss="10.25" rerouteNo="1" devices="tripinfo_157572_421_0 routing_157572_421_0" vType="pkw" speedFactor="1.03" vaporized=""/>
    <tripinfo id="138793_413_0" depart="25264.00" departLane="-297047309#0_0" departPos="4.40" departSpeed="0.00" departDelay="0.00" arrival="25409.00" arrivalLane="28675510#7_0" arrivalPos="257.94" arrivalSpeed="11.72" duration="145.00" routeLength="1192.12" waitingTime="7.00" waitingCount="2" stopTime="0.00" timeLoss="31.27" rerouteNo="1" devices="tripinfo_138793_413_0 routing_138793_413_0" vType="pkw" speedFactor="0.92" vaporized=""/>
    <tripinfo id="163043_422_0" depart="25214.00" departLane="-28675510#11_0" departPos="4.40" departSpeed="0.00" departDelay="2.00" arrival="25410.00" arrivalLane="8716827#0_0" arrivalPos="109.12" arrivalSpeed="7.89" duration="196.00" routeLength="1154.53" waitingTime="89.00" waitingCount="1" stopTime="0.00" timeLoss="106.61" rerouteNo="1" devices="tripinfo_163043_422_0 routing_163043_422_0" vType="pkw" speedFactor="1.00" vaporized=""/>
    <tripinfo id="145512_416_0" depart="25308.00" departLane="22917421#3_0" departPos="4.40" departSpeed="0.00" departDelay="0.00" arrival="25410.00" arrivalLane="186623965#17_0" arrivalPos="143.63" arrivalSpeed="11.38" duration="102.00" routeLength="257.42" waitingTime="61.00" waitingCount="2" stopTime="0.00" timeLoss="74.51" rerouteNo="0" devices="tripinfo_145512_416_0 routing_145512_416_0" vType="pkw" speedFactor="0.87" vaporized=""/>
    <tripinfo id="164277_422_0" depart="25343.00" departLane="23285888#0_0" departPos="4.40" departSpeed="0.00" departDelay="0.00" arrival="25414.00" arrivalLane="297047309#0_0" arrivalPos="91.17" arrivalSpeed="13.15" duration="71.00" routeLength="518.80" waitingTime="8.00" waitingCount="1" stopTime="0.00" timeLoss="18.08" rerouteNo="1" devices="tripinfo_164277_422_0 routing_164277_422_0" vType="pkw" speedFactor="1.02" vaporized=""/>
    <tripinfo id="109527_401_0" depart="25339.00" departLane="-23283579#1_0" departPos="4.40" departSpeed="0.00" departDelay="0.00" arrival="25415.00" arrivalLane="297047309#0_0" arrivalPos="91.17" arrivalSpeed="14.52" duration="76.00" routeLength="656.20" waitingTime="2.00" waitingCount="1" stopTime="0.00" timeLoss="14.02" rerouteNo="1" devices="tripinfo_109527_401_0 routing_109527_401_0" vType="pkw" speedFactor="1.06" vaporized=""/>
    <tripinfo id="171749_426_0" depart="25314.00" departLane="-23283579#1_0" departPos="4.40" departSpeed="0.00" departDelay="0.00" arrival="25417.00" arrivalLane="-297047309#0_0" arrivalPos="91.17" arrivalSpeed="14.21" duration="103.00" routeLength="752.04" waitingTime="21.00" waitingCount="1" stopTime="0.00" timeLoss="32.82" rerouteNo="1" devices="tripinfo_171749_426_0 routing_171749_426_0" vType="pkw" speedFactor="1.03" vaporized=""/>