<?xml version="1.0" encoding="UTF-8"?>

<!-- generated on 12/08/21 21:20:18 by Eclipse SUMO sumo Version 1.7.0
<configuration xmlns:xsi="http://www.w3.org/2001/XMLSchema-instance" xsi:noNamespaceSchemaLocation="http://sumo.dlr.de/xsd/sumoConfiguration.xsd">

    <input>
        <net-file value="C:\Users\longs\Desktop\RESCO-main\environments/cologne8/cologne8.net.xml"/>
        <route-files value="C:\Users\longs\Desktop\RESCO-main\environments/cologne8/cologne8.rou.xml"/>
    </input>

    <output>
        <tripinfo-output value="C:\Users\longs\Desktop\RESCO-main\logs\STOCHASTIC-tr1-cologne8-0-mplight-wait\tripinfo_23.xml"/>
        <tripinfo-output.write-unfinished value="true"/>
    </output>

    <time>
        <begin value="25200"/>
        <end value="28800"/>
    </time>

    <processing>
        <time-to-teleport value="-1"/>
    </processing>

    <report>
        <no-warnings value="true"/>
        <no-step-log value="true"/>
    </report>

    <traci_server>
        <remote-port value="52589"/>
    </traci_server>

    <random_number>
        <random value="true"/>
    </random_number>

</configuration>
-->

<tripinfos xmlns:xsi="http://www.w3.org/2001/XMLSchema-instance" xsi:noNamespaceSchemaLocation="http://sumo.dlr.de/xsd/tripinfo_file.xsd">
    <tripinfo id="142890_415_0" depart="25218.00" departLane="-23283579#1_0" departPos="4.40" departSpeed="0.00" departDelay="0.00" arrival="25226.00" arrivalLane="23283579#1_0" arrivalPos="22.22" arrivalSpeed="12.29" duration="8.00" routeLength="44.72" waitingTime="0.00" waitingCount="0" stopTime="0.00" timeLoss="3.59" rerouteNo="0" devices="tripinfo_142890_415_0 routing_142890_415_0" vType="pkw" speedFactor="0.89" vaporized=""/>
    <tripinfo id="137312_412_0" depart="25200.00" departLane="-23283579#1_0" departPos="4.40" departSpeed="0.00" departDelay="0.00" arrival="25236.00" arrivalLane="23283436_0" arrivalPos="65.76" arrivalSpeed="15.89" duration="36.00" routeLength="404.67" waitingTime="0.00" waitingCount="0" stopTime="0.00" timeLoss="10.76" rerouteNo="1" devices="tripinfo_137312_412_0 routing_137312_412_0" vType="pkw" speedFactor="1.18" vaporized=""/>
    <tripinfo id="155570_420_0" depart="25200.00" departLane="-28675510#11_0" departPos="4.40" departSpeed="0.00" departDelay="0.00" arrival="25246.00" arrivalLane="28675510#7_0" arrivalPos="257.94" arrivalSpeed="11.71" duration="46.00" routeLength="516.12" waitingTime="0.00" waitingCount="0" stopTime="0.00" timeLoss="5.76" rerouteNo="0" devices="tripinfo_155570_420_0 routing_155570_420_0" vType="pkw" speedFactor="0.92" vaporized=""/>
    <tripinfo id="137959_412_0" depart="25209.00" departLane="-186623965#18_0" departPos="4.40" departSpeed="0.00" departDelay="0.00" arrival="25251.00" arrivalLane="-22917421#4_0" arrivalPos="96.26" arrivalSpeed="7.61" duration="42.00" routeLength="263.02" waitingTime="6.00" waitingCount="1" stopTime="0.00" timeLoss="16.25" rerouteNo="0" devices="tripinfo_137959_412_0 routing_137959_412_0" vType="pkw" speedFactor="0.95" vaporized=""/>
    <tripinfo id="134603_411_0" depart="25206.00" departLane="-28675510#11_0" departPos="4.40" departSpeed="0.00" departDelay="0.00" arrival="25253.00" arrivalLane="28675510#7_0" arrivalPos="257.94" arrivalSpeed="11.48" duration="47.00" routeLength="516.12" waitingTime="0.00" waitingCount="0" stopTime="0.00" timeLoss="4.89" rerouteNo="0" devices="tripinfo_134603_411_0 routing_134603_411_0" vType="pkw" speedFactor="0.89" vaporized=""/>
    <tripinfo id="140143_414_0" depart="25211.00" departLane="-28675510#11_0" departPos="4.40" departSpeed="0.00" departDelay="1.00" arrival="25258.00" arrivalLane="28675510#7_0" arrivalPos="257.94" arrivalSpeed="11.96" duration="47.00" routeLength="516.12" waitingTime="0.00" waitingCount="0" stopTime="0.00" timeLoss="4.62" rerouteNo="0" devices="tripinfo_140143_414_0 routing_140143_414_0" vType="pkw" speedFactor="0.89" vaporized=""/>
    <tripinfo id="161942_421_0" depart="25233.00" departLane="-42925825#2_0" departPos="4.40" departSpeed="0.00" departDelay="0.00" arrival="25273.00" arrivalLane="42925825#0_0" arrivalPos="254.17" arrivalSpeed="14.30" duration="40.00" routeLength="508.64" waitingTime="0.00" waitingCount="0" stopTime="0.00" timeLoss="6.52" rerouteNo="0" devices="tripinfo_161942_421_0 routing_161942_421_0" vType="pkw" speedFactor="1.11" vaporized=""/>
    <tripinfo id="163799_422_0" depart="25257.00" departLane="-186623965#18_0" departPos="4.40" departSpeed="0.00" departDelay="2.00" arrival="25291.00" arrivalLane="-22917421#4_0" arrivalPos="96.26" arrivalSpeed="7.93" duration="34.00" routeLength="263.02" waitingTime="0.00" waitingCount="0" stopTime="0.00" timeLoss="8.44" rerouteNo="0" devices="tripinfo_163799_422_0 routing_163799_422_0" vType="pkw" speedFactor="0.97" vaporized=""/>
    <tripinfo id="111571_401_0" depart="25267.00" departLane="-353069169#0_0" departPos="4.40" departSpeed="0.00" departDelay="0.00" arrival="25294.00" arrivalLane="24487264_0" arrivalPos="166.35" arrivalSpeed="14.53" duration="27.00" routeLength="286.19" waitingTime="0.00" waitingCount="0" stopTime="0.00" timeLoss="6.38" rerouteNo="1" devices="tripinfo_111571_401_0 routing_111571_401_0" vType="pkw" speedFactor="1.06" vaporized=""/>
    <tripinfo id="141355_415_0" depart="25232.00" departLane="-186623965#18_0" departPos="4.40" departSpeed="0.00" departDelay="0.00" arrival="25305.00" arrivalLane="42925825#0_0" arrivalPos="254.17" arrivalSpeed="13.86" duration="73.00" routeLength="625.62" waitingTime="14.00" waitingCount="1" stopTime="0.00" timeLoss="28.75" rerouteNo="1" devices="tripinfo_141355_415_0 routing_141355_415_0" vType="pkw" speedFactor="1.03" vaporized=""/>
    <tripinfo id="131071_409_0" depart="25236.00" departLane="-186623965#18_0" departPos="4.40" departSpeed="0.00" departDelay="0.00" arrival="25307.00" arrivalLane="42925825#0_0" arrivalPos="254.17" arrivalSpeed="14.40" duration="71.00" routeLength="625.62" waitingTime="12.00" waitingCount="1" stopTime="0.00" timeLoss="27.47" rerouteNo="1" devices="tripinfo_131071_409_0 routing_131071_409_0" vType="pkw" speedFactor="1.06" vaporized=""/>
    <tripinfo id="126900_407_0" depart="25239.00" departLane="-186623965#18_0" departPos="4.40" departSpeed="0.00" departDelay="0.00" arrival="25309.00" arrivalLane="42925825#0_0" arrivalPos="254.17" arrivalSpeed="13.42" duration="70.00" routeLength="625.62" waitingTime="11.00" waitingCount="1" stopTime="0.00" timeLoss="24.99" rerouteNo="1" devices="tripinfo_126900_407_0 routing_126900_407_0" vType="pkw" speedFactor="1.02" vaporized=""/>
    <tripinfo id="121484_406_0" depart="25268.00" departLane="-23283579#1_0" departPos="4.40" departSpeed="0.00" departDelay="0.00" arrival="25309.00" arrivalLane="133081987#3_0" arrivalPos="99.94" arrivalSpeed="12.88" duration="41.00" routeLength="434.85" waitingTime="0.00" waitingCount="0" stopTime="0.00" timeLoss="8.29" rerouteNo="1" devices="tripinfo_121484_406_0 routing_121484_406_0" vType="pkw" speedFactor="0.96" vaporized=""/>
    <tripinfo id="76230_386_0" depart="25204.00" departLane="-23283579#1_0" departPos="4.40" departSpeed="0.00" departDelay="0.00" arrival="25310.00" arrivalLane="297047309#0_0" arrivalPos="91.17" arrivalSpeed="12.57" duration="106.00" routeLength="656.20" waitingTime="23.00" waitingCount="1" stopTime="0.00" timeLoss="37.03" rerouteNo="1" devices="tripinfo_76230_386_0 routing_76230_386_0" vType="pkw" speedFactor="0.96" vaporized=""/>
    <tripinfo id="126698_407_0" depart="25241.00" departLane="-186623965#18_0" departPos="4.40" departSpeed="0.00" departDelay="0.00" arrival="25310.00" arrivalLane="42925825#0_0" arrivalPos="254.17" arrivalSpeed="13.50" duration="69.00" routeLength="625.62" waitingTime="4.00" waitingCount="1" stopTime="0.00" timeLoss="25.90" rerouteNo="1" devices="tripinfo_126698_407_0 routing_126698_407_0" vType="pkw" speedFactor="1.05" vaporized=""/>
    <tripinfo id="150593_418_0" depart="25297.00" departLane="22959552#0_0" departPos="4.40" departSpeed="0.00" departDelay="0.00" arrival="25310.00" arrivalLane="22959552#0_0" arrivalPos="91.39" arrivalSpeed="8.14" duration="13.00" routeLength="86.99" waitingTime="0.00" waitingCount="0" stopTime="0.00" timeLoss="2.88" rerouteNo="1" devices="tripinfo_150593_418_0 routing_150593_418_0" vType="pkw" speedFactor="1.06" vaporized=""/>
    <tripinfo id="110248_401_0" depart="25206.00" departLane="-23283579#1_0" departPos="4.40" departSpeed="0.00" departDelay="0.00" arrival="25311.00" arrivalLane="297047309#0_0" arrivalPos="91.17" arrivalSpeed="13.21" duration="105.00" routeLength="656.20" waitingTime="22.00" waitingCount="1" stopTime="0.00" timeLoss="37.10" rerouteNo="1" devices="tripinfo_110248_401_0 routing_110248_401_0" vType="pkw" speedFactor="0.96" vaporized=""/>
    <tripinfo id="161216_421_0" depart="25251.00" departLane="-186623965#18_0" departPos="4.40" departSpeed="0.00" departDelay="3.00" arrival="25314.00" arrivalLane="42925825#0_0" arrivalPos="254.17" arrivalSpeed="12.29" duration="63.00" routeLength="625.62" waitingTime="0.00" waitingCount="0" stopTime="0.00" timeLoss="12.95" rerouteNo="1" devices="tripinfo_161216_421_0 routing_161216_421_0" vType="pkw" speedFactor="0.90" vaporized=""/>
    <tripinfo id="159622_421_0" depart="25254.00" departLane="-186623965#18_0" departPos="4.40" departSpeed="0.00" departDelay="3.00" arrival="25317.00" arrivalLane="42925825#0_0" arrivalPos="254.17" arrivalSpeed="10.61" duration="63.00" routeLength="625.62" waitingTime="0.00" waitingCount="0" stopTime="0.00" timeLoss="10.28" rerouteNo="1" devices="tripinfo_159622_421_0 routing_159622_421_0" vType="pkw" speedFactor="0.86" vaporized=""/>
    <tripinfo id="127809_407_0" depart="25257.00" departLane="-23283579#1_0" departPos="4.40" departSpeed="0.00" departDelay="0.00" arrival="25318.00" arrivalLane="23285888#0_0" arrivalPos="109.58" arrivalSpeed="7.40" duration="61.00" routeLength="410.95" waitingTime="1.00" waitingCount="1" stopTime="0.00" timeLoss="16.40" rerouteNo="1" devices="tripinfo_127809_407_0 routing_127809_407_0" vType="pkw" speedFactor="1.00" vaporized=""/>
    <tripinfo id="91556_392_0" depart="25270.00" departLane="-23283579#1_0" departPos="4.40" departSpeed="0.00" departDelay="0.00" arrival="25326.00" arrivalLane="23840972_0" arrivalPos="97.66" arrivalSpeed="7.51" duration="56.00" routeLength="525.30" waitingTime="0.00" waitingCount="0" stopTime="0.00" timeLoss="9.73" rerouteNo="1" devices="tripinfo_91556_392_0 routing_91556_392_0" vType="pkw" speedFactor="1.02" vaporized=""/>
    <tripinfo id="138070_412_0" depart="25229.00" departLane="22917421#3_0" departPos="4.40" departSpeed="0.00" departDelay="0.00" arrival="25329.00" arrivalLane="186623965#17_0" arrivalPos="143.63" arrivalSpeed="14.38" duration="100.00" routeLength="257.42" waitingTime="69.00" waitingCount="1" stopTime="0.00" timeLoss="78.08" rerouteNo="0" devices="tripinfo_138070_412_0 routing_138070_412_0" vType="pkw" speedFactor="1.08" vaporized=""/>
    <tripinfo id="153496_420_0" depart="25232.00" departLane="22917421#3_0" departPos="4.40" departSpeed="0.00" departDelay="0.00" arrival="25331.00" arrivalLane="186623965#17_0" arrivalPos="143.63" arrivalSpeed="14.04" duration="99.00" routeLength="257.42" waitingTime="69.00" waitingCount="1" stopTime="0.00" timeLoss="77.30" rerouteNo="0" devices="tripinfo_153496_420_0 routing_153496_420_0" vType="pkw" speedFactor="1.10" vaporized=""/>
    <tripinfo id="171184_426_0" depart="25326.00" departLane="133081987#0_0" departPos="4.40" departSpeed="0.00" departDelay="0.00" arrival="25341.00" arrivalLane="23283436_0" arrivalPos="65.76" arrivalSpeed="13.71" duration="15.00" routeLength="154.99" waitingTime="0.00" waitingCount="0" stopTime="0.00" timeLoss="4.36" rerouteNo="0" devices="tripinfo_171184_426_0 routing_171184_426_0" vType="pkw" speedFactor="1.06" vaporized=""/>
    <tripinfo id="84611_390_0" depart="25261.00" departLane="-23283579#1_0" departPos="4.40" departSpeed="0.00" departDelay="0.00" arrival="25355.00" arrivalLane="-23648008#0_0" arrivalPos="75.90" arrivalSpeed="13.83" duration="94.00" routeLength="782.02" waitingTime="0.00" waitingCount="0" stopTime="0.00" timeLoss="24.64" rerouteNo="1" devices="tripinfo_84611_390_0 routing_84611_390_0" vType="pkw" speedFactor="1.08" vaporized=""/>
    <tripinfo id="129175_408_0" depart="25255.00" departLane="-23283579#1_0" departPos="4.40" departSpeed="0.00" departDelay="0.00" arrival="25356.00" arrivalLane="323450710#0_0" arrivalPos="95.59" arrivalSpeed="13.89" duration="101.00" routeLength="843.12" waitingTime="3.00" waitingCount="1" stopTime="0.00" timeLoss="26.80" rerouteNo="1" devices="tripinfo_129175_408_0 routing_129175_408_0" vType="pkw" speedFactor="1.08" vaporized=""/>
    <tripinfo id="152801_419_0" depart="25299.00" departLane="-297047307_0" departPos="4.40" departSpeed="0.00" departDelay="0.00" arrival="25361.00" arrivalLane="297047309#0_0" arrivalPos="91.17" arrivalSpeed="12.56" duration="62.00" routeLength="439.92" waitingTime="16.00" waitingCount="1" stopTime="0.00" timeLoss="28.31" rerouteNo="1" devices="tripinfo_152801_419_0 routing_152801_419_0" vType="pkw" speedFactor="0.94" vaporized=""/>
    <tripinfo id="155353_420_0" depart="25235.00" departLane="22917421#3_0" departPos="4.40" departSpeed="0.00" departDelay="1.00" arrival="25367.00" arrivalLane="186623965#17_0" arrivalPos="143.63" arrivalSpeed="15.12" duration="132.00" routeLength="257.42" waitingTime="97.00" waitingCount="2" stopTime="0.00" timeLoss="110.07" rerouteNo="0" devices="tripinfo_155353_420_0 routing_155353_420_0" vType="pkw" speedFactor="1.10" vaporized=""/>
    <tripinfo id="144017_416_0" depart="25348.00" departLane="-353069169#0_0" departPos="4.40" departSpeed="0.00" departDelay="0.00" arrival="25367.00" arrivalLane="323416262_0" arrivalPos="87.54" arrivalSpeed="12.21" duration="19.00" routeLength="175.35" waitingTime="0.00" waitingCount="0" stopTime="0.00" timeLoss="4.34" rerouteNo="0" devices="tripinfo_144017_416_0 routing_144017_416_0" vType="pkw" speedFactor="0.89" vaporized=""/>
    <tripinfo id="139269_413_0" depart="25307.00" departLane="-23283579#1_0" departPos="4.40" departSpeed="0.00" departDelay="0.00" arrival="25382.00" arrivalLane="-297047308_0" arrivalPos="28.52" arrivalSpeed="14.40" duration="75.00" routeLength="517.28" waitingTime="5.00" waitingCount="2" stopTime="0.00" timeLoss="21.58" rerouteNo="1" devices="tripinfo_139269_413_0 routing_139269_413_0" vType="pkw" speedFactor="1.05" vaporized=""/>
    <tripinfo id="108769_400_0" depart="25356.00" departLane="-186623965#18_0" departPos="4.40" departSpeed="0.00" departDelay="0.00" arrival="25390.00" arrivalLane="-22917421#4_0" arrivalPos="96.26" arrivalSpeed="6.96" duration="34.00" routeLength="263.02" waitingTime="0.00" waitingCount="0" stopTime="0.00" timeLoss="5.05" rerouteNo="0" devices="tripinfo_108769_400_0 routing_108769_400_0" vType="pkw" speedFactor="0.85" vaporized=""/>
    <tripinfo id="131243_409_0" depart="25248.00" departLane="-186623965#18_0" departPos="4.40" departSpeed="0.00" departDelay="0.00" arrival="25397.00" arrivalLane="-186623965#14_1" arrivalPos="159.69" arrivalSpeed="14.67" duration="149.00" routeLength="528.65" waitingTime="92.00" waitingCount="2" stopTime="0.00" timeLoss="115.56" rerouteNo="1" devices="tripinfo_131243_409_0 routing_131243_409_0" vType="pkw" speedFactor="1.14" vaporized=""/>
    <tripinfo id="114597_403_0" depart="25201.00" departLane="22917421#3_0" departPos="4.40" departSpeed="0.00" departDelay="0.00" arrival="25399.00" arrivalLane="-186623965#14_0" arrivalPos="159.69" arrivalSpeed="13.60" duration="198.00" routeLength="476.78" waitingTime="148.00" waitingCount="1" stopTime="0.00" timeLoss="158.08" rerouteNo="1" devices="tripinfo_114597_403_0 routing_114597_403_0" vType="pkw" speedFactor="0.99" vaporized=""/>
    <tripinfo id="158136_421_0" depart="25240.00" departLane="28675510#1_0" departPos="4.40" departSpeed="0.00" departDelay="0.00" arrival="25401.00" arrivalLane="323416262_0" arrivalPos="87.54" arrivalSpeed="10.08" duration="161.00" routeLength="1126.93" waitingTime="2.00" waitingCount="1" stopTime="0.00" timeLoss="21.38" rerouteNo="1" devices="tripinfo_158136_421_0 routing_158136_421_0" vType="pkw" speedFactor="0.75" vaporized=""/>
    <tripinfo id="96268_394_0" depart="25369.00" departLane="-186623965#18_0" departPos="4.40" departSpeed="0.00" departDelay="0.00" arrival="25401.00" arrivalLane="-22917421#4_0" arrivalPos="96.26" arrivalSpeed="6.25" duration="32.00" routeLength="263.02" waitingTime="0.00" waitingCount="0" stopTime="0.00" timeLoss="4.53" rerouteNo="0" devices="tripinfo_96268_394_0 routing_96268_394_0" vType="pkw" speedFactor="0.91" vaporized=""/>
    <tripinfo id="166776_424_0" depart="25208.00" departLane="-28675510#11_0" departPos="4.40" departSpeed="0.00" departDelay="0.00" arrival="25403.00" arrivalLane="-186623965#14_0" arrivalPos="159.69" arrivalSpeed="12.04" duration="195.00" routeLength="1202.17" waitingTime="48.00" waitingCount="1" stopTime="0.00" timeLoss="68.26" rerouteNo="1" devices="tripinfo_166776_424_0 routing_166776_424_0" vType="pkw" speedFactor="0.89" vaporized=""/>
    <tripinfo id="175709_428_0" depart="25324.00" departLane="-186623965#18_0" departPos="4.40" departSpeed="0.00" departDelay="0.00" arrival="25405.00" arrivalLane="-186623965#14_0" arrivalPos="159.69" arrivalSpeed="13.15" duration="81.00" routeLength="528.65" waitingTime="30.00" waitingCount="1" stopTime="0.00" timeLoss="41.81" rerouteNo="1" devices="tripinfo_175709_428_0 routing_175709_428_0" vType="pkw" speedFactor="0.98" vaporized=""/>
    <tripinfo id="119181_405_0" depart="25226.00" departLane="186623965#9_0" departPos="4.40" departSpeed="0.00" departDelay="0.00" arrival="25406.00" arrivalLane="42925825#0_0" arrivalPos="254.17" arrivalSpeed="13.23" duration="180.00" routeLength="418.48" waitingTime="140.00" waitingCount="1" stopTime="0.00" timeLoss="150.84" rerouteNo="0" devices="tripinfo_119181_405_0 routing_119181_405_0" vType="pkw" speedFactor="1.04" vaporized=""/>
    <tripinfo id="133416_410_0" depart="25228.00" departLane="186623965#9_0" departPos="4.40" departSpeed="0.00" departDelay="0.00" arrival="25408.00" arrivalLane="42925825#0_0" arrivalPos="254.17" arrivalSpeed="16.05" duration="180.00" routeLength="418.48" waitingTime="139.00" waitingCount="1" stopTime="0.00" timeLoss="153.65" rerouteNo="0" devices="tripinfo_133416_410_0 routing_133416_410_0" vType="pkw" speedFactor="1.18" vaporized=""/>
    <tripinfo id="166162_424_0" depart="25233.00" departLane="22959550#0_0" departPos="4.40" departSpeed="0.00" departDelay="0.00" arrival="25409.00" arrivalLane="28675510#7_0" arrivalPos="257.94" arrivalSpeed="12.27" duration="176.00" routeLength="903.30" waitingTime="64.00" waitingCount="2" stopTime="0.00" timeLoss="82.95" rerouteNo="1" devices="tripinfo_166162_424_0 routing_166162_424_0" vType="pkw" speedFactor="0.91" vaporized=""/>
    <tripinfo id="113370_402_0" depart="25249.00" departLane="186623965#9_0" departPos="4.40" departSpeed="0.00" departDelay="0.00" arrival="25410.00" arrivalLane="42925825#0_0" arrivalPos="254.17" arrivalSpeed="12.93" duration="161.00" routeLength="418.48" waitingTime="120.00" waitingCount="1" stopTime="0.00" timeLoss="131.17" rerouteNo="0" devices="tripinfo_113370_402_0 routing_113370_402_0" vType="pkw" speedFactor="1.01" vaporized=""/>
    <tripinfo id="146152_416_0" depart="25210.00" departLane="25166682#0_0" departPos="4.40" departSpeed="0.00" departDelay="0.00" arrival="25411.00" arrivalLane="28675510#7_0" arrivalPos="257.94" arrivalSpeed="15.05" duration="201.00" routeLength="1219.50" waitingTime="63.00" waitingCount="1" stopTime="0.00" timeLoss="107.34" rerouteNo="1" devices="tripinfo_146152_416_0 routing_146152_416_0" vType="pkw" speedFactor="1.16" vaporized=""/>
    <tripinfo id="145282_416_0" depart="25259.00" departLane="186623965#9_0" departPos="4.40" departSpeed="0.00" departDelay="0.00" arrival="25412.00" arrivalLane="42925825#0_0" arrivalPos="254.17" arrivalSpeed="13.30" duration="153.00" routeLength="418.48" waitingTime="111.00" waitingCount="1" stopTime="0.00" timeLoss="123.35" rerouteNo="0" devices="tripinfo_145282_416_0 routing_145282_416_0" vType="pkw" speedFactor="1.03" vaporized=""/>
    <tripinfo id="174787_427_0" depart="25287.00" departLane="22959550#3_0" departPos="4.40" departSpeed="0.00" departDelay="0.00" arrival="25412.00" arrivalLane="28675510#7_0" arrivalPos="257.94" arrivalSpeed="14.25" duration="125.00" routeLength="757.45" waitingTime="41.00" waitingCount="1" stopTime="0.00" timeLoss="59.94" rerouteNo="1" devices="tripinfo_174787_427_0 routing_174787_427_0" vType="pkw" speedFactor="1.03" vaporized=""/>
    <tripinfo id="135663_411_0" depart="25216.00" departLane="-28675510#11_0" departPos="4.40" departSpeed="0.00" departDelay="2.00" arrival="25417.00" arrivalLane="28675510#7_0" arrivalPos="257.94" arrivalSpeed="11.93" duration="201.00" routeLength="516.12" waitingTime="144.00" waitingCount="2" stopTime="0.00" timeLoss="158.13" rerouteNo="0" devices="tripinfo_135663_411_0 routing_135663_411_0" vType="pkw" speedFactor="0.88" vaporized=""/>
    <tripinfo id="140525_414_0" depart="25221.00" departLane="186623965#9_0" departPos="4.40" departSpeed="0.00" departDelay="0.00" arrival="25418.00" arrivalLane="186623965#17_0" arrivalPos="143.63" arrivalSpeed="11.59" duration="197.00" routeLength="527.61" waitingTime="142.00" waitingCount="1" stopTime="0.00" timeLoss="153.67" rerouteNo="1" devices="tripinfo_140525_414_0 routing_140525_414_0" vType="pkw" speedFactor="0.89" vaporized=""/>
    <tripinfo id="147744_416_0" depart="25272.00" departLane="-186623965#18_0" departPos="4.40" departSpeed="0.00" departDelay="0.00" arrival="25418.00" arrivalLane="42925825#0_0" arrivalPos="254.17" arrivalSpeed="12.16" duration="146.00" routeLength="625.62" waitingTime="83.00" waitingCount="2" stopTime="0.00" timeLoss="98.81" rerouteNo="1" devices="tripinfo_147744_416_0 routing_147744_416_0" vType="pkw" speedFactor="0.97" vaporized=""/>
    <tripinfo id="138639_413_0" depart="25314.00" departLane="186623965#9_0" departPos="4.40" departSpeed="0.00" departDelay="0.00" arrival="25418.00" arrivalLane="186623965#17_1" arrivalPos="143.63" arrivalSpeed="12.99" duration="104.00" routeLength="527.61" waitingTime="49.00" waitingCount="1" stopTime="0.00" timeLoss="63.04" rerouteNo="1" devices="tripinfo_138639_413_0 routing_138639_413_0" vType="pkw" speedFactor="0.95" vaporized=""/>
    <tripinfo id="158885_421_0" depart="25220.00" departLane="22917421#3_0" departPos="4.40" departSpeed="0.00" departDelay="0.00" arrival="25419.00" arrivalLane="28675510#7_0" arrivalPos="257.94" arrivalSpeed="12.56" duration="199.00" routeLength="937.03" waitingTime="77.00" waitingCount="1" stopTime="0.00" timeLoss="94.57" rerouteNo="1" devices="tripinfo_158885_421_0 routing_158885_421_0" vType="pkw" speedFactor="0.96" vaporized=""/>
    <tripinfo id="139530_413_0" depart="25383.00" departLane="186623965#9_0" departPos="4.40" departSpeed="0.00" departDelay="0.00" arrival="25419.00" arrivalLane="42925825#0_0" arrivalPos="254.17" arrivalSpeed="13.04" duration="36.00" routeLength="418.48" waitingTime="0.00" waitingCount="0" stopTime="0.00" timeLoss="6.27" rerouteNo="0" devices="tripinfo_139530_413_0 routing_139530_413_0" vType="pkw" speedFactor="1.02" vaporized=""/>
    <tripinfo id="134167_411_0" depart="25211.00" departLane="-23283579#1_0" departPos="4.40" departSpeed="0.00" departDelay="0.00" arrival="25422.00" arrivalLane="-186623965#14_0" arrivalPos="159.69" arrivalSpeed="10.12" duration="211.00" routeLength="1526.65" waitingTime="27.00" waitingCount="2" stopTime="0.00" timeLoss="49.75" rerouteNo="1" devices="tripinfo_134167_411_0 routing_134167_411_0" vType="pkw" speedFactor="0.79" vaporized=""/>
    <tripinfo id="148207_417_0" depart="25320.00" departLane="-186623965#18_0" departPos="4.40" departSpeed="0.00" departDelay="0.00" arrival="25422.00" arrivalLane="42925825#0_0" arrivalPos="254.17" arrivalSpeed="12.82" duration="102.00" routeLength="625.62" waitingTime="38.00" waitingCount="2" stopTime="0.00" timeLoss="55.19" rerouteNo="1" devices="tripinfo_148207_417_0 routing_148207_417_0" vType="pkw" speedFactor="0.98" vaporized=""/>
    <tripinfo id="164277_422_0" depart="25343.00" departLane="23285888#0_0" departPos="4.40" departSpeed="0.00" departDelay="0.00" arrival="25422.00" arrivalLane="297047309#0_0" arrivalPos="91.17" arrivalSpeed="15.66" duration="79.00" routeLength="518.80" waitingTime="18.00" waitingCount="1" stopTime="0.00" timeLoss="31.81" rerouteNo="1" devices="tripinfo_164277_422_0 routing_164277_422_0" vType="pkw" speedFactor="1.16" vaporized=""/>
    <tripinfo id="120970_405_0" depart="25343.00" departLane="-23283579#1_0" departPos="4.40" departSpeed="0.00" departDelay="0.00" arrival="25423.00" arrivalLane="23283470#5_0" arrivalPos="89.27" arrivalSpeed="8.48" duration="80.00" routeLength="393.04" waitingTime="28.00" waitingCount="1" stopTime="0.00" timeLoss="40.07" rerouteNo="1" devices="tripinfo_120970_405_0 routing_120970_405_0" vType="pkw" speedFactor="1.09" vaporized=""/>
    <tripinfo id="160358_421_0" depart="25214.00" departLane="-23283579#1_0" departPos="4.40" departSpeed="0.00" departDelay="1.00" arrival="25424.00" arrivalLane="-186623965#14_0" arrivalPos="159.69" arrivalSpeed="13.34" duration="210.00" routeLength="1526.65" waitingTime="25.00" waitingCount="2" stopTime="0.00" timeLoss="86.79" rerouteNo="1" devices="tripinfo_160358_421_0 routing_160358_421_0" vType="pkw" speedFactor="1.04" vaporized=""/>
    <tripinfo id="171749_426_0" depart="25314.00" departLane="-23283579#1_0" departPos="4.40" departSpeed="0.00" departDelay="0.00" arrival="25425.00" arrivalLane="-297047309#0_0" arrivalPos="91.17" arrivalSpeed="14.14" duration="111.00" routeLength="752.04" waitingTime="21.00" waitingCount="2" stopTime="0.00" timeLoss="45.00" rerouteNo="1" devices="tripinfo_171749_426_0 routing_171749_426_0" vType="pkw" speedFactor="1.10" vaporized=""/>
    <tripinfo id="148039_417_0" depart="25331.00" departLane="-186623965#16_0" departPos="4.40" departSpeed="0.00" departDelay="0.00" arrival="25425.00" arrivalLane="186623965#17_0" arrivalPos="143.63" arrivalSpeed="13.39" duration="94.00" routeLength="545.21" waitingTime="38.00" waitingCount="2" stopTime="0.00" timeLoss="53.34" rerouteNo="1" devices="tripinfo_148039_417_0 routing_148039_417_0" vType="pkw" speedFactor="0.98" vaporized=""/>
    <tripinfo id="83049_390_0" depart="25408.00" departLane="-4936412_0" departPos="4.40" departSpeed="0.00" departDelay="0.00" arrival="25429.00" arrivalLane="8716827#0_0" arrivalPos="109.12" arrivalSpeed="7.54" duration="21.00" routeLength="148.59" waitingTime="0.00" waitingCount="0" stopTime="0.00" timeLoss="3.80" rerouteNo="0" devices="tripinfo_83049_390_0 routing_83049_390_0" vType="pkw" speedFactor="0.95" vaporized=""/>
    <tripinfo id="179907_430_0" depart="25383.00" departLane="23283470#0_0" departPos="4.40" departSpeed="0.00" departDelay="0.00" arrival="25434.00" arrivalLane="23283579#1_0" arrivalPos="22.22" arrivalSpeed="11.13" duration="51.00" routeLength="367.64" waitingTime="0.00" waitingCount="0" stopTime="0.00" timeLoss="5.71" rerouteNo="1" devices="tripinfo_179907_430_0 routing_179907_430_0" vType="pkw" speedFactor="0.87" vaporized=""/>
    <tripinfo id="67978_381_0" depart="25412.00" departLane="-4936412_0" departPos="4.40" departSpeed="0.00" departDelay="0.00" arrival="25435.00" arrivalLane="8716827#0_0" arrivalPos="109.12" arrivalSpeed="6.45" duration="23.00" routeLength="148.59" waitingTime="0.00" waitingCount="0" stopTime="0.00" timeLoss="3.81" rerouteNo="0" devices="tripinfo_67978_381_0 routing_67978_381_0" vType="pkw" speedFactor="0.87" vaporized=""/>
    <tripinfo id="149045_417_0" depart="25219.00" departLane="-28675510#11_0" departPos="4.40" departSpeed="0.00" departDelay="2.00" arrival="25436.00" arrivalLane="28675510#7_0" arrivalPos="257.94" arrivalSpeed="13.53" duration="217.00" routeLength="516.12" waitingTime="158.00" waitingCount="3" stopTime="0.00" timeLoss="178.18" rerouteNo="0" devices="tripinfo_149045_417_0 routing_149045_417_0" vType="pkw" speedFactor="0.98" vaporized=""/>
    <tripinfo id="137686_412_0" depart="25330.00" departLane="-186623965#18_0" departPos="4.40" departSpeed="0.00" departDelay="0.00" arrival="25436.00" arrivalLane="42925825#0_0" arrivalPos="254.17" arrivalSpeed="12.98" duration="106.00" routeLength="625.62" waitingTime="41.00" waitingCount="3" stopTime="0.00" timeLoss="59.66" rerouteNo="1" devices="tripinfo_137686_412_0 routing_137686_412_0" vType="pkw" speedFactor="0.98" vaporized=""/>
    <tripinfo id="164388_422_0" depart="25405.00" departLane="-186623965#18_0" departPos="4.40" departSpeed="0.00" departDelay="0.00" arrival="25436.00" arrivalLane="-22917421#4_0" arrivalPos="96.26" arrivalSpeed="7.46" duration="31.00" routeLength="263.02" waitingTime="0.00" waitingCount="0" stopTime="0.00" timeLoss="5.37" rerouteNo="0" devices="tripinfo_164388_422_0 routing_164388_422_0" vType="pkw" speedFactor="0.96" vaporized=""/>
    <tripinfo id="175131_428_0" depart="25328.00" departLane="23840713#2_0" departPos="4.40" departSpeed="0.00" departDelay="0.00" arrival="25444.00" arrivalLane="42925825#0_0" arrivalPos="254.17" arrivalSpeed="14.70" duration="116.00" routeLength="1255.24" waitingTime="3.00" waitingCount="1" stopTime="0.00" timeLoss="19.76" rerouteNo="1" devices="tripinfo_175131_428_0 routing_175131_428_0" vType="pkw" speedFactor="1.13" vaporized=""/>
    <tripinfo id="109527_401_0" depart="25339.00" departLane="-23283579#1_0" departPos="4.40" departSpeed="0.00" departDelay="0.00" arrival="25444.00" arrivalLane="297047309#0_0" arrivalPos="91.17" arrivalSpeed="13.71" duration="105.00" routeLength="656.20" waitingTime="30.00" waitingCount="1" stopTime="0.00" timeLoss="43.92" rerouteNo="1" devices="tripinfo_109527_401_0 routing_109527_401_0" vType="pkw" speedFactor="1.08" vaporized=""/>