<?xml version="1.0" encoding="UTF-8"?>

<!-- generated on 12/08/21 18:55:02 by Eclipse SUMO sumo Version 1.7.0
<configuration xmlns:xsi="http://www.w3.org/2001/XMLSchema-instance" xsi:noNamespaceSchemaLocation="http://sumo.dlr.de/xsd/sumoConfiguration.xsd">

    <input>
        <net-file value="C:\Users\longs\Desktop\RESCO-main\environments/ingolstadt21/ingolstadt21.net.xml"/>
        <route-files value="C:\Users\longs\Desktop\RESCO-main\environments/ingolstadt21/ingolstadt21.rou.xml"/>
    </input>

    <output>
        <tripinfo-output value="C:\Users\longs\Desktop\RESCO-main\logs\MAXPRESSURE-tr1-ingolstadt21-21-mplight-wait\tripinfo_80.xml"/>
        <tripinfo-output.write-unfinished value="true"/>
    </output>

    <time>
        <begin value="57600"/>
        <end value="61200"/>
    </time>

    <processing>
        <time-to-teleport value="-1"/>
    </processing>

    <report>
        <no-warnings value="true"/>
        <no-step-log value="true"/>
    </report>

    <traci_server>
        <remote-port value="54831"/>
    </traci_server>

    <random_number>
        <random value="true"/>
    </random_number>

</configuration>
-->

<tripinfos xmlns:xsi="http://www.w3.org/2001/XMLSchema-instance" xsi:noNamespaceSchemaLocation="http://sumo.dlr.de/xsd/tripinfo_file.xsd">
    <tripinfo id="h15454c2:3" depart="57612.00" departLane="24608844_1" departPos="5.10" departSpeed="0.00" departDelay="0.50" arrival="57648.00" arrivalLane="32978638#0_1" arrivalPos="49.29" arrivalSpeed="15.90" duration="36.00" routeLength="354.79" waitingTime="0.00" waitingCount="0" stopTime="0.00" timeLoss="8.19" rerouteNo="1" devices="tripinfo_h15454c2:3 routing_h15454c2:3" vType="default_016" speedFactor="1.23" vaporized=""/>
    <tripinfo id="carIn60260:1" depart="57606.00" departLane="315358254#0_1" departPos="5.10" departSpeed="0.00" departDelay="0.90" arrival="57665.00" arrivalLane="399835085#1_1" arrivalPos="212.23" arrivalSpeed="7.51" duration="59.00" routeLength="430.98" waitingTime="0.00" waitingCount="0" stopTime="0.00" timeLoss="8.91" rerouteNo="1" devices="tripinfo_carIn60260:1 routing_carIn60260:1" vType="default_016" speedFactor="0.92" vaporized=""/>
    <tripinfo id="carIn53971:1" depart="57640.00" departLane="272042143_1" departPos="5.10" departSpeed="0.00" departDelay="0.80" arrival="57701.00" arrivalLane="24634414#1_1" arrivalPos="162.19" arrivalSpeed="6.61" duration="61.00" routeLength="493.04" waitingTime="0.00" waitingCount="0" stopTime="0.00" timeLoss="9.70" rerouteNo="1" devices="tripinfo_carIn53971:1 routing_carIn53971:1" vType="default_016" speedFactor="0.90" vaporized=""/>
    <tripinfo id="h12244c1:3" depart="57612.00" departLane="315358244_1" departPos="5.10" departSpeed="0.00" departDelay="0.40" arrival="57706.00" arrivalLane="386687235_1" arrivalPos="80.84" arrivalSpeed="15.21" duration="94.00" routeLength="1186.14" waitingTime="2.00" waitingCount="1" stopTime="0.00" timeLoss="15.19" rerouteNo="1" devices="tripinfo_h12244c1:3 routing_h12244c1:3" vType="default_016" speedFactor="1.10" vaporized=""/>
    <tripinfo id="S5R_frequency1.2" depart="57612.00" departLane="315358250#0_1" departPos="12.10" departSpeed="0.00" departDelay="0.40" arrival="57710.00" arrivalLane="386687235_1" arrivalPos="80.84" arrivalSpeed="13.45" duration="98.00" routeLength="1115.62" waitingTime="0.00" waitingCount="0" stopTime="0.00" timeLoss="16.62" rerouteNo="1" devices="tripinfo_S5R_frequency1.2 routing_S5R_frequency1.2" vType="bus" speedFactor="1.00" vaporized=""/>
    <tripinfo id="carIn22761:1" depart="57616.00" departLane="-306240162#1_0" departPos="5.10" departSpeed="0.00" departDelay="2.10" arrival="57710.00" arrivalLane="399835085#1_1" arrivalPos="212.23" arrivalSpeed="9.10" duration="94.00" routeLength="1093.26" waitingTime="5.00" waitingCount="1" stopTime="0.00" timeLoss="24.02" rerouteNo="1" devices="tripinfo_carIn22761:1 routing_carIn22761:1" vType="default_016" speedFactor="1.11" vaporized=""/>
    <tripinfo id="carIn80064:1" depart="57603.00" departLane="128361109#1_1" departPos="5.10" departSpeed="0.00" departDelay="0.40" arrival="57720.00" arrivalLane="-315358254#1_1" arrivalPos="137.16" arrivalSpeed="15.60" duration="117.00" routeLength="1587.97" waitingTime="14.00" waitingCount="1" stopTime="0.00" timeLoss="39.91" rerouteNo="1" devices="tripinfo_carIn80064:1 routing_carIn80064:1" vType="default_016" speedFactor="1.15" vaporized=""/>
    <tripinfo id="h9563c2:5" depart="57631.00" departLane="315358244_1" departPos="5.10" departSpeed="0.00" departDelay="0.70" arrival="57722.00" arrivalLane="386687235_1" arrivalPos="80.84" arrivalSpeed="14.11" duration="91.00" routeLength="1186.14" waitingTime="0.00" waitingCount="0" stopTime="0.00" timeLoss="8.32" rerouteNo="1" devices="tripinfo_h9563c2:5 routing_h9563c2:5" vType="default_016" speedFactor="1.05" vaporized=""/>
    <tripinfo id="h7800c1:5" depart="57696.00" departLane="-447569998#1_1" departPos="5.10" departSpeed="0.00" departDelay="0.00" arrival="57725.00" arrivalLane="-447569998#1_2" arrivalPos="180.76" arrivalSpeed="4.34" duration="29.00" routeLength="175.66" waitingTime="0.00" waitingCount="0" stopTime="0.00" timeLoss="5.94" rerouteNo="1" devices="tripinfo_h7800c1:5 routing_h7800c1:5" vType="default_016" speedFactor="0.93" vaporized=""/>
    <tripinfo id="h3688c1:1" depart="57625.00" departLane="201201950#1_1" departPos="5.10" departSpeed="0.00" departDelay="0.00" arrival="57732.00" arrivalLane="32978638#0_1" arrivalPos="49.29" arrivalSpeed="13.24" duration="107.00" routeLength="1089.75" waitingTime="9.00" waitingCount="1" stopTime="0.00" timeLoss="24.79" rerouteNo="1" devices="tripinfo_h3688c1:1 routing_h3688c1:1" vType="default_016" speedFactor="0.97" vaporized=""/>
    <tripinfo id="h3568c1:3" depart="57656.00" departLane="266565295#5_1" departPos="5.10" departSpeed="0.00" departDelay="0.80" arrival="57736.00" arrivalLane="-24634415_1" arrivalPos="62.03" arrivalSpeed="12.81" duration="80.00" routeLength="807.40" waitingTime="0.00" waitingCount="0" stopTime="0.00" timeLoss="11.72" rerouteNo="1" devices="tripinfo_h3568c1:3 routing_h3568c1:3" vType="default_016" speedFactor="0.95" vaporized=""/>
    <tripinfo id="h7181c1:1" depart="57660.00" departLane="315358254#0_1" departPos="5.10" departSpeed="0.00" departDelay="0.10" arrival="57751.00" arrivalLane="306240162#0_0" arrivalPos="220.43" arrivalSpeed="16.18" duration="91.00" routeLength="932.35" waitingTime="18.00" waitingCount="2" stopTime="0.00" timeLoss="39.49" rerouteNo="1" devices="tripinfo_h7181c1:1 routing_h7181c1:1" vType="default_016" speedFactor="1.01" vaporized=""/>
    <tripinfo id="h317c2:1" depart="57707.00" departLane="-32978638#0_1" departPos="5.10" departSpeed="0.00" departDelay="0.10" arrival="57752.00" arrivalLane="-266565295#5_1" arrivalPos="172.76" arrivalSpeed="15.17" duration="45.00" routeLength="370.53" waitingTime="11.00" waitingCount="1" stopTime="0.00" timeLoss="20.96" rerouteNo="1" devices="tripinfo_h317c2:1 routing_h317c2:1" vType="default_016" speedFactor="1.14" vaporized=""/>
    <tripinfo id="h5979c1:5" depart="57669.00" departLane="399835085#1_1" departPos="5.10" departSpeed="0.00" departDelay="0.00" arrival="57758.00" arrivalLane="-315358254#1_1" arrivalPos="137.16" arrivalSpeed="13.51" duration="89.00" routeLength="659.33" waitingTime="4.00" waitingCount="1" stopTime="0.00" timeLoss="18.60" rerouteNo="1" devices="tripinfo_h5979c1:5 routing_h5979c1:5" vType="default_016" speedFactor="1.04" vaporized=""/>
    <tripinfo id="carIn107084:1" depart="57601.00" departLane="124812856#0_1" departPos="5.10" departSpeed="0.00" departDelay="0.70" arrival="57759.00" arrivalLane="-128361102#1_1" arrivalPos="274.68" arrivalSpeed="16.28" duration="158.00" routeLength="2232.46" waitingTime="0.00" waitingCount="0" stopTime="0.00" timeLoss="20.88" rerouteNo="1" devices="tripinfo_carIn107084:1 routing_carIn107084:1" vType="default_016" speedFactor="1.19" vaporized=""/>
    <tripinfo id="carIn30817:1" depart="57681.00" departLane="315358244_1" departPos="5.10" departSpeed="0.00" departDelay="0.20" arrival="57760.00" arrivalLane="447569997#1_1" arrivalPos="180.93" arrivalSpeed="7.66" duration="79.00" routeLength="718.04" waitingTime="7.00" waitingCount="1" stopTime="0.00" timeLoss="18.84" rerouteNo="1" devices="tripinfo_carIn30817:1 routing_carIn30817:1" vType="default_016" speedFactor="1.02" vaporized=""/>
    <tripinfo id="h3326c1:2" depart="57656.00" departLane="22716069#0_1" departPos="5.10" departSpeed="0.00" departDelay="0.00" arrival="57774.00" arrivalLane="24634517#13_1" arrivalPos="111.62" arrivalSpeed="12.24" duration="118.00" routeLength="1312.81" waitingTime="0.00" waitingCount="0" stopTime="0.00" timeLoss="16.28" rerouteNo="1" devices="tripinfo_h3326c1:2 routing_h3326c1:2" vType="default_016" speedFactor="0.96" vaporized=""/>
    <tripinfo id="h3154c1:1" depart="57658.00" departLane="24634507_1" departPos="5.10" departSpeed="0.00" departDelay="0.00" arrival="57778.00" arrivalLane="-266565295#5_1" arrivalPos="172.76" arrivalSpeed="14.02" duration="120.00" routeLength="1206.22" waitingTime="17.00" waitingCount="2" stopTime="0.00" timeLoss="38.61" rerouteNo="1" devices="tripinfo_h3154c1:1 routing_h3154c1:1" vType="default_016" speedFactor="1.09" vaporized=""/>
    <tripinfo id="carIn12365:1" depart="57713.00" departLane="315358244_1" departPos="5.10" departSpeed="0.00" departDelay="0.50" arrival="57779.00" arrivalLane="447569997#1_1" arrivalPos="180.93" arrivalSpeed="7.55" duration="66.00" routeLength="718.04" waitingTime="0.00" waitingCount="0" stopTime="0.00" timeLoss="7.13" rerouteNo="1" devices="tripinfo_carIn12365:1 routing_carIn12365:1" vType="default_016" speedFactor="1.04" vaporized=""/>
    <tripinfo id="h330c1:1" depart="57736.00" departLane="-32978638#0_1" departPos="5.10" departSpeed="0.00" departDelay="0.20" arrival="57785.00" arrivalLane="-266565295#5_1" arrivalPos="172.76" arrivalSpeed="13.31" duration="49.00" routeLength="370.53" waitingTime="11.00" waitingCount="1" stopTime="0.00" timeLoss="21.01" rerouteNo="1" devices="tripinfo_h330c1:1 routing_h330c1:1" vType="default_016" speedFactor="0.99" vaporized=""/>
    <tripinfo id="h645c1:1" depart="57622.00" departLane="266565295#5_1" departPos="5.10" departSpeed="0.00" departDelay="0.40" arrival="57787.00" arrivalLane="-315358244_1" arrivalPos="33.95" arrivalSpeed="12.58" duration="165.00" routeLength="1910.83" waitingTime="0.00" waitingCount="0" stopTime="0.00" timeLoss="15.49" rerouteNo="1" devices="tripinfo_h645c1:1 routing_h645c1:1" vType="default_016" speedFactor="0.93" vaporized=""/>
    <tripinfo id="carIn27009:1" depart="57673.00" departLane="-447569998#1_1" departPos="5.10" departSpeed="0.00" departDelay="0.50" arrival="57789.00" arrivalLane="-26677539_1" arrivalPos="152.75" arrivalSpeed="8.84" duration="116.00" routeLength="699.63" waitingTime="25.00" waitingCount="1" stopTime="0.00" timeLoss="38.49" rerouteNo="1" devices="tripinfo_carIn27009:1 routing_carIn27009:1" vType="default_015" speedFactor="1.07" vaporized=""/>
    <tripinfo id="carIn86816:1" depart="57617.00" departLane="128361102#0_1" departPos="5.10" departSpeed="0.00" departDelay="0.80" arrival="57790.00" arrivalLane="201956811#0_1" arrivalPos="40.40" arrivalSpeed="12.93" duration="173.00" routeLength="2067.33" waitingTime="0.00" waitingCount="0" stopTime="0.00" timeLoss="17.81" rerouteNo="1" devices="tripinfo_carIn86816:1 routing_carIn86816:1" vType="default_016" speedFactor="0.97" vaporized=""/>
    <tripinfo id="carIn82220:1" depart="57619.00" departLane="-306240162#1_0" departPos="5.10" departSpeed="0.00" departDelay="3.50" arrival="57792.00" arrivalLane="386687235_2" arrivalPos="80.84" arrivalSpeed="14.19" duration="173.00" routeLength="2257.41" waitingTime="4.00" waitingCount="1" stopTime="0.00" timeLoss="32.45" rerouteNo="1" devices="tripinfo_carIn82220:1 routing_carIn82220:1" vType="default_016" speedFactor="1.06" vaporized=""/>
    <tripinfo id="carIn48184:1" depart="57613.00" departLane="-306240162#1_0" departPos="5.10" departSpeed="0.00" departDelay="0.70" arrival="57794.00" arrivalLane="386687235_1" arrivalPos="80.84" arrivalSpeed="14.32" duration="181.00" routeLength="2257.41" waitingTime="14.00" waitingCount="2" stopTime="0.00" timeLoss="45.69" rerouteNo="1" devices="tripinfo_carIn48184:1 routing_carIn48184:1" vType="default_016" speedFactor="1.10" vaporized=""/>
    <tripinfo id="carIn118591:1" depart="57689.00" departLane="315358244_1" departPos="5.10" departSpeed="0.00" departDelay="0.20" arrival="57803.00" arrivalLane="386687235_1" arrivalPos="80.84" arrivalSpeed="11.87" duration="114.00" routeLength="1186.14" waitingTime="6.00" waitingCount="1" stopTime="0.00" timeLoss="18.24" rerouteNo="1" devices="tripinfo_carIn118591:1 routing_carIn118591:1" vType="default_016" speedFactor="0.90" vaporized=""/>
    <tripinfo id="carIn102915:1" depart="57643.00" departLane="128361102#0_1" departPos="5.10" departSpeed="0.00" departDelay="0.40" arrival="57804.00" arrivalLane="201956811#0_1" arrivalPos="40.40" arrivalSpeed="14.09" duration="161.00" routeLength="2067.33" waitingTime="0.00" waitingCount="0" stopTime="0.00" timeLoss="17.07" rerouteNo="1" devices="tripinfo_carIn102915:1 routing_carIn102915:1" vType="default_016" speedFactor="1.05" vaporized=""/>
    <tripinfo id="carIn77943:1" depart="57608.00" departLane="124812856#0_1" departPos="5.10" departSpeed="0.00" departDelay="2.50" arrival="57808.00" arrivalLane="-128361102#1_1" arrivalPos="274.68" arrivalSpeed="13.27" duration="200.00" routeLength="2250.49" waitingTime="0.00" waitingCount="0" stopTime="0.00" timeLoss="38.08" rerouteNo="1" devices="tripinfo_carIn77943:1 routing_carIn77943:1" vType="default_016" speedFactor="1.01" vaporized=""/>
    <tripinfo id="carIn12858:1" depart="57661.00" departLane="128361109#1_1" departPos="5.10" departSpeed="0.00" departDelay="0.90" arrival="57811.00" arrivalLane="399835085#1_1" arrivalPos="212.23" arrivalSpeed="7.81" duration="150.00" routeLength="1738.12" waitingTime="11.00" waitingCount="2" stopTime="0.00" timeLoss="42.87" rerouteNo="1" devices="tripinfo_carIn12858:1 routing_carIn12858:1" vType="default_016" speedFactor="1.08" vaporized=""/>
    <tripinfo id="carIn129809:1" depart="57729.00" departLane="-447569998#1_1" departPos="5.10" departSpeed="0.00" departDelay="1.00" arrival="57813.00" arrivalLane="-315358244_1" arrivalPos="33.95" arrivalSpeed="14.74" duration="84.00" routeLength="706.49" waitingTime="12.00" waitingCount="2" stopTime="0.00" timeLoss="28.65" rerouteNo="1" devices="tripinfo_carIn129809:1 routing_carIn129809:1" vType="default_015" speedFactor="1.10" vaporized=""/>
    <tripinfo id="carIn82278:1" depart="57702.00" departLane="-306240162#1_0" departPos="5.10" departSpeed="0.00" departDelay="0.70" arrival="57814.00" arrivalLane="399835085#1_1" arrivalPos="212.23" arrivalSpeed="7.51" duration="112.00" routeLength="1093.26" waitingTime="9.00" waitingCount="1" stopTime="0.00" timeLoss="37.01" rerouteNo="1" devices="tripinfo_carIn82278:1 routing_carIn82278:1" vType="default_016" speedFactor="1.04" vaporized=""/>
    <tripinfo id="carIn50326:1" depart="57651.00" departLane="128361102#0_1" departPos="5.10" departSpeed="0.00" departDelay="0.30" arrival="57815.00" arrivalLane="18809673#0_1" arrivalPos="473.56" arrivalSpeed="12.08" duration="164.00" routeLength="1591.07" waitingTime="4.00" waitingCount="1" stopTime="0.00" timeLoss="23.02" rerouteNo="1" devices="tripinfo_carIn50326:1 routing_carIn50326:1" vType="default_016" speedFactor="0.92" vaporized=""/>
    <tripinfo id="carIn81046:1" depart="57611.00" departLane="124812856#0_1" departPos="5.10" departSpeed="0.00" departDelay="2.50" arrival="57818.00" arrivalLane="-128361102#1_1" arrivalPos="274.68" arrivalSpeed="10.99" duration="207.00" routeLength="2250.49" waitingTime="0.00" waitingCount="0" stopTime="0.00" timeLoss="18.70" rerouteNo="1" devices="tripinfo_carIn81046:1 routing_carIn81046:1" vType="default_016" speedFactor="0.88" vaporized=""/>
    <tripinfo id="h11737c1:1" depart="57665.00" departLane="272042143_1" departPos="5.10" departSpeed="0.00" departDelay="1.50" arrival="57818.00" arrivalLane="-315358254#1_1" arrivalPos="137.16" arrivalSpeed="12.08" duration="153.00" routeLength="1596.88" waitingTime="8.00" waitingCount="1" stopTime="0.00" timeLoss="26.59" rerouteNo="1" devices="tripinfo_h11737c1:1 routing_h11737c1:1" vType="default_016" speedFactor="0.92" vaporized=""/>
    <tripinfo id="carIn77438:1" depart="57614.00" departLane="124812856#0_1" departPos="5.10" departSpeed="0.00" departDelay="1.10" arrival="57819.00" arrivalLane="-128361102#1_1" arrivalPos="274.68" arrivalSpeed="12.82" duration="205.00" routeLength="2250.49" waitingTime="0.00" waitingCount="0" stopTime="0.00" timeLoss="56.81" rerouteNo="1" devices="tripinfo_carIn77438:1 routing_carIn77438:1" vType="default_016" speedFactor="1.11" vaporized=""/>
    <tripinfo id="carIn126288:1" depart="57674.00" departLane="272042143_1" departPos="5.10" departSpeed="0.00" departDelay="0.00" arrival="57820.00" arrivalLane="-315358254#1_1" arrivalPos="137.16" arrivalSpeed="14.37" duration="146.00" routeLength="1596.88" waitingTime="8.00" waitingCount="1" stopTime="0.00" timeLoss="37.81" rerouteNo="1" devices="tripinfo_carIn126288:1 routing_carIn126288:1" vType="default_016" speedFactor="1.08" vaporized=""/>
    <tripinfo id="h19804c1:3" depart="57617.00" departLane="124812856#0_1" departPos="5.10" departSpeed="0.00" departDelay="1.50" arrival="57821.00" arrivalLane="-128361102#1_1" arrivalPos="274.68" arrivalSpeed="12.94" duration="204.00" routeLength="2250.49" waitingTime="0.00" waitingCount="0" stopTime="0.00" timeLoss="41.48" rerouteNo="1" devices="tripinfo_h19804c1:3 routing_h19804c1:3" vType="default_016" speedFactor="1.02" vaporized=""/>
    <tripinfo id="carIn107842:1" depart="57623.00" departLane="124812856#0_1" departPos="5.10" departSpeed="0.00" departDelay="1.90" arrival="57823.00" arrivalLane="-128361102#1_1" arrivalPos="274.68" arrivalSpeed="14.69" duration="200.00" routeLength="2250.49" waitingTime="0.00" waitingCount="0" stopTime="0.00" timeLoss="52.83" rerouteNo="1" devices="tripinfo_carIn107842:1 routing_carIn107842:1" vType="default_016" speedFactor="1.12" vaporized=""/>
    <tripinfo id="randUni33724:1" depart="57646.00" departLane="128361102#0_1" departPos="5.10" departSpeed="0.00" departDelay="1.20" arrival="57828.00" arrivalLane="201956811#0_1" arrivalPos="40.40" arrivalSpeed="11.92" duration="182.00" routeLength="2067.33" waitingTime="0.00" waitingCount="0" stopTime="0.00" timeLoss="17.80" rerouteNo="1" devices="tripinfo_randUni33724:1 routing_randUni33724:1" vType="random_016" speedFactor="0.92" vaporized=""/>
    <tripinfo id="h15382c1:3" depart="57626.00" departLane="124812856#0_1" departPos="5.10" departSpeed="0.00" departDelay="3.80" arrival="57829.00" arrivalLane="-128361102#1_1" arrivalPos="274.68" arrivalSpeed="11.11" duration="203.00" routeLength="2250.49" waitingTime="0.00" waitingCount="0" stopTime="0.00" timeLoss="17.46" rerouteNo="1" devices="tripinfo_h15382c1:3 routing_h15382c1:3" vType="default_016" speedFactor="0.89" vaporized=""/>
    <tripinfo id="carIn56649:1" depart="57632.00" departLane="124812856#0_1" departPos="5.10" departSpeed="0.00" departDelay="8.10" arrival="57831.00" arrivalLane="-128361102#1_1" arrivalPos="274.68" arrivalSpeed="12.48" duration="199.00" routeLength="2250.49" waitingTime="0.00" waitingCount="0" stopTime="0.00" timeLoss="22.41" rerouteNo="1" devices="tripinfo_carIn56649:1 routing_carIn56649:1" vType="default_016" speedFactor="0.93" vaporized=""/>
    <tripinfo id="carIn28951:1" depart="57606.00" departLane="10425609#0_1" departPos="5.10" departSpeed="0.00" departDelay="0.20" arrival="57833.00" arrivalLane="-128361102#1_1" arrivalPos="274.68" arrivalSpeed="12.32" duration="227.00" routeLength="2113.04" waitingTime="36.00" waitingCount="1" stopTime="0.00" timeLoss="63.63" rerouteNo="1" devices="tripinfo_carIn28951:1 routing_carIn28951:1" vType="default_016" speedFactor="0.95" vaporized=""/>
    <tripinfo id="carIn462:1" depart="57622.00" departLane="-306240162#1_0" departPos="5.10" departSpeed="0.00" departDelay="4.80" arrival="57834.00" arrivalLane="386687235_2" arrivalPos="80.84" arrivalSpeed="12.19" duration="212.00" routeLength="2257.41" waitingTime="20.00" waitingCount="3" stopTime="0.00" timeLoss="55.71" rerouteNo="1" devices="tripinfo_carIn462:1 routing_carIn462:1" vType="default_016" speedFactor="0.95" vaporized=""/>
    <tripinfo id="h20540c1:1" depart="57634.00" departLane="10425609#0_1" departPos="5.10" departSpeed="0.00" departDelay="0.50" arrival="57834.00" arrivalLane="-128361102#1_1" arrivalPos="274.68" arrivalSpeed="13.49" duration="200.00" routeLength="2113.04" waitingTime="12.00" waitingCount="1" stopTime="0.00" timeLoss="50.95" rerouteNo="1" devices="tripinfo_h20540c1:1 routing_h20540c1:1" vType="default_016" speedFactor="1.04" vaporized=""/>
    <tripinfo id="h16072c2:3" depart="57663.00" departLane="315358254#0_1" departPos="5.10" departSpeed="0.00" departDelay="2.50" arrival="57834.00" arrivalLane="386687235_1" arrivalPos="80.84" arrivalSpeed="11.11" duration="171.00" routeLength="1611.92" waitingTime="15.00" waitingCount="2" stopTime="0.00" timeLoss="35.83" rerouteNo="1" devices="tripinfo_h16072c2:3 routing_h16072c2:3" vType="default_016" speedFactor="0.87" vaporized=""/>
    <tripinfo id="carIn100288:1" depart="57664.00" departLane="128361102#0_1" departPos="5.10" departSpeed="0.00" departDelay="0.60" arrival="57835.00" arrivalLane="201956811#0_1" arrivalPos="40.40" arrivalSpeed="13.18" duration="171.00" routeLength="2067.33" waitingTime="1.00" waitingCount="1" stopTime="0.00" timeLoss="19.62" rerouteNo="1" devices="tripinfo_carIn100288:1 routing_carIn100288:1" vType="default_016" speedFactor="1.00" vaporized=""/>
    <tripinfo id="carIn17767:1" depart="57638.00" departLane="124812856#0_1" departPos="5.10" departSpeed="0.00" departDelay="10.80" arrival="57836.00" arrivalLane="-128361102#1_1" arrivalPos="274.68" arrivalSpeed="14.29" duration="198.00" routeLength="2250.49" waitingTime="7.00" waitingCount="1" stopTime="0.00" timeLoss="45.96" rerouteNo="1" devices="tripinfo_carIn17767:1 routing_carIn17767:1" vType="default_016" speedFactor="1.08" vaporized=""/>
    <tripinfo id="50R_frequency3.17" depart="57674.00" departLane="-18809673#6_1" departPos="12.10" departSpeed="0.00" departDelay="0.70" arrival="57836.00" arrivalLane="201956811#0_1" arrivalPos="40.40" arrivalSpeed="13.30" duration="162.00" routeLength="1954.47" waitingTime="0.00" waitingCount="0" stopTime="0.00" timeLoss="17.40" rerouteNo="1" devices="tripinfo_50R_frequency3.17 routing_50R_frequency3.17" vType="bus" speedFactor="1.00" vaporized=""/>
    <tripinfo id="carIn116184:1" depart="57627.00" departLane="-306240162#1_0" departPos="5.10" departSpeed="0.00" departDelay="0.10" arrival="57837.00" arrivalLane="386687235_1" arrivalPos="80.84" arrivalSpeed="11.39" duration="210.00" routeLength="2257.41" waitingTime="1.00" waitingCount="1" stopTime="0.00" timeLoss="31.28" rerouteNo="1" devices="tripinfo_carIn116184:1 routing_carIn116184:1" vType="default_016" speedFactor="0.83" vaporized=""/>
    <tripinfo id="carIn107282:1" depart="57749.00" departLane="-447569998#1_1" departPos="5.10" departSpeed="0.00" departDelay="0.00" arrival="57837.00" arrivalLane="315358242#0_1" arrivalPos="165.37" arrivalSpeed="12.16" duration="88.00" routeLength="448.50" waitingTime="35.00" waitingCount="1" stopTime="0.00" timeLoss="43.97" rerouteNo="1" devices="tripinfo_carIn107282:1 routing_carIn107282:1" vType="default_016" speedFactor="0.95" vaporized=""/>
    <tripinfo id="carIn31257:1" depart="57630.00" departLane="-306240162#1_0" departPos="5.10" departSpeed="0.00" departDelay="1.60" arrival="57839.00" arrivalLane="386687235_1" arrivalPos="80.84" arrivalSpeed="14.36" duration="209.00" routeLength="2257.41" waitingTime="10.00" waitingCount="1" stopTime="0.00" timeLoss="70.85" rerouteNo="1" devices="tripinfo_carIn31257:1 routing_carIn31257:1" vType="default_016" speedFactor="1.08" vaporized=""/>
    <tripinfo id="carIn88932:1" depart="57647.00" departLane="124812856#0_1" departPos="5.10" departSpeed="0.00" departDelay="16.40" arrival="57839.00" arrivalLane="-128361102#1_1" arrivalPos="274.68" arrivalSpeed="14.69" duration="192.00" routeLength="2250.49" waitingTime="3.00" waitingCount="1" stopTime="0.00" timeLoss="39.23" rerouteNo="1" devices="tripinfo_carIn88932:1 routing_carIn88932:1" vType="default_016" speedFactor="1.07" vaporized=""/>
    <tripinfo id="carIn12152:1" depart="57647.00" departLane="24599188#0.94_1" departPos="5.10" departSpeed="0.00" departDelay="0.50" arrival="57841.00" arrivalLane="-315358254#1_1" arrivalPos="137.16" arrivalSpeed="13.49" duration="194.00" routeLength="2034.31" waitingTime="11.00" waitingCount="1" stopTime="0.00" timeLoss="33.29" rerouteNo="1" devices="tripinfo_carIn12152:1 routing_carIn12152:1" vType="default_016" speedFactor="0.99" vaporized=""/>
    <tripinfo id="h17600c1:1" depart="57662.00" departLane="272042143_1" departPos="5.10" departSpeed="0.00" departDelay="0.30" arrival="57841.00" arrivalLane="201238729#3_1" arrivalPos="431.02" arrivalSpeed="12.11" duration="179.00" routeLength="2100.26" waitingTime="0.00" waitingCount="0" stopTime="0.00" timeLoss="13.28" rerouteNo="1" devices="tripinfo_h17600c1:1 routing_h17600c1:1" vType="default_016" speedFactor="0.91" vaporized=""/>
    <tripinfo id="carIn81860:1" depart="57712.00" departLane="128361102#0_1" departPos="5.10" departSpeed="0.00" departDelay="0.60" arrival="57841.00" arrivalLane="-24634517#17_1" arrivalPos="6.43" arrivalSpeed="6.90" duration="129.00" routeLength="1229.64" waitingTime="15.00" waitingCount="2" stopTime="0.00" timeLoss="36.46" rerouteNo="1" devices="tripinfo_carIn81860:1 routing_carIn81860:1" vType="default_016" speedFactor="0.97" vaporized=""/>
    <tripinfo id="h3864c1:3" depart="57678.00" departLane="24693977#1_1" departPos="5.10" departSpeed="0.00" departDelay="0.00" arrival="57843.00" arrivalLane="201956820_1" arrivalPos="48.33" arrivalSpeed="11.63" duration="165.00" routeLength="1574.85" waitingTime="0.00" waitingCount="0" stopTime="0.00" timeLoss="18.88" rerouteNo="1" devices="tripinfo_h3864c1:3 routing_h3864c1:3" vType="default_016" speedFactor="0.89" vaporized=""/>
    <tripinfo id="carIn46110:1" depart="57684.00" departLane="315358244_1" departPos="5.10" departSpeed="0.00" departDelay="1.20" arrival="57851.00" arrivalLane="32978638#0_1" arrivalPos="49.29" arrivalSpeed="13.72" duration="167.00" routeLength="1764.04" waitingTime="16.00" waitingCount="2" stopTime="0.00" timeLoss="38.22" rerouteNo="1" devices="tripinfo_carIn46110:1 routing_carIn46110:1" vType="default_016" speedFactor="0.99" vaporized=""/>
    <tripinfo id="carIn29531:1" depart="57667.00" departLane="128361102#0_1" departPos="5.10" departSpeed="0.00" departDelay="1.60" arrival="57852.00" arrivalLane="201956811#0_1" arrivalPos="40.40" arrivalSpeed="13.94" duration="185.00" routeLength="2067.33" waitingTime="6.00" waitingCount="1" stopTime="0.00" timeLoss="39.43" rerouteNo="1" devices="tripinfo_carIn29531:1 routing_carIn29531:1" vType="default_016" speedFactor="1.04" vaporized=""/>
    <tripinfo id="carIn44740:1" depart="57653.00" departLane="124812856#0_1" departPos="5.10" departSpeed="0.00" departDelay="20.70" arrival="57853.00" arrivalLane="-128361102#1_1" arrivalPos="274.68" arrivalSpeed="12.99" duration="200.00" routeLength="2250.49" waitingTime="0.00" waitingCount="0" stopTime="0.00" timeLoss="30.75" rerouteNo="1" devices="tripinfo_carIn44740:1 routing_carIn44740:1" vType="default_016" speedFactor="0.98" vaporized=""/>
    <tripinfo id="carIn85747:1" depart="57673.00" departLane="128361109#1_1" departPos="5.10" departSpeed="0.00" departDelay="0.70" arrival="57853.00" arrivalLane="386687235_1" arrivalPos="80.84" arrivalSpeed="15.83" duration="180.00" routeLength="2088.57" waitingTime="25.00" waitingCount="3" stopTime="0.00" timeLoss="50.65" rerouteNo="1" devices="tripinfo_carIn85747:1 routing_carIn85747:1" vType="default_016" speedFactor="1.17" vaporized=""/>
    <tripinfo id="h19413c1:1" depart="57685.00" departLane="128361109#1_1" departPos="5.10" departSpeed="0.00" departDelay="5.90" arrival="57853.00" arrivalLane="386687235_2" arrivalPos="80.84" arrivalSpeed="14.26" duration="168.00" routeLength="2088.57" waitingTime="2.00" waitingCount="1" stopTime="0.00" timeLoss="32.36" rerouteNo="1" devices="tripinfo_h19413c1:1 routing_h19413c1:1" vType="default_016" speedFactor="1.11" vaporized=""/>
    <tripinfo id="h6541c1:3" depart="57727.00" departLane="201950247#3_1" departPos="5.10" departSpeed="0.00" departDelay="0.00" arrival="57853.00" arrivalLane="32978638#0_1" arrivalPos="49.29" arrivalSpeed="14.37" duration="126.00" routeLength="1176.17" waitingTime="6.00" waitingCount="1" stopTime="0.00" timeLoss="32.53" rerouteNo="1" devices="tripinfo_h6541c1:3 routing_h6541c1:3" vType="default_016" speedFactor="1.10" vaporized=""/>
    <tripinfo id="carIn2912:1" depart="57670.00" departLane="128361102#0_1" departPos="5.10" departSpeed="0.00" departDelay="3.10" arrival="57854.00" arrivalLane="201956811#0_1" arrivalPos="40.40" arrivalSpeed="14.48" duration="184.00" routeLength="2067.33" waitingTime="6.00" waitingCount="1" stopTime="0.00" timeLoss="44.70" rerouteNo="1" devices="tripinfo_carIn2912:1 routing_carIn2912:1" vType="default_016" speedFactor="1.09" vaporized=""/>
    <tripinfo id="randUni31145:1" depart="57814.00" departLane="10425609#0_1" departPos="5.10" departSpeed="0.00" departDelay="0.30" arrival="57854.00" arrivalLane="201956810_1" arrivalPos="71.65" arrivalSpeed="13.69" duration="40.00" routeLength="255.78" waitingTime="9.00" waitingCount="1" stopTime="0.00" timeLoss="20.74" rerouteNo="1" devices="tripinfo_randUni31145:1 routing_randUni31145:1" vType="random_016" speedFactor="1.04" vaporized=""/>