<?xml version="1.0" encoding="UTF-8"?>

<!-- generated on 12/20/21 15:00:36 by Eclipse SUMO sumo Version 1.7.0
<configuration xmlns:xsi="http://www.w3.org/2001/XMLSchema-instance" xsi:noNamespaceSchemaLocation="http://sumo.dlr.de/xsd/sumoConfiguration.xsd">

    <input>
        <net-file value="C:\Users\longs\Desktop\RESCO-main\environments/ingolstadt21/ingolstadt21.net.xml"/>
        <route-files value="C:\Users\longs\Desktop\RESCO-main\environments/ingolstadt21/ingolstadt21.rou.xml"/>
    </input>

    <output>
        <tripinfo-output value="C:\Users\longs\Desktop\RESCO-main\logs\IDQN-tr1-ingolstadt21-21-drqlong-delaydiff_pressure09\tripinfo_70.xml"/>
        <tripinfo-output.write-unfinished value="true"/>
    </output>

    <time>
        <begin value="57600"/>
        <end value="61200"/>
    </time>

    <processing>
        <time-to-teleport value="-1"/>
    </processing>

    <report>
        <no-warnings value="true"/>
        <no-step-log value="true"/>
    </report>

    <traci_server>
        <remote-port value="64650"/>
    </traci_server>

    <random_number>
        <random value="true"/>
    </random_number>

</configuration>
-->

<tripinfos xmlns:xsi="http://www.w3.org/2001/XMLSchema-instance" xsi:noNamespaceSchemaLocation="http://sumo.dlr.de/xsd/tripinfo_file.xsd">
    <tripinfo id="h15454c2:3" depart="57612.00" departLane="24608844_1" departPos="5.10" departSpeed="0.00" departDelay="0.50" arrival="57651.00" arrivalLane="32978638#0_1" arrivalPos="49.29" arrivalSpeed="14.13" duration="39.00" routeLength="354.79" waitingTime="0.00" waitingCount="0" stopTime="0.00" timeLoss="6.42" rerouteNo="1" devices="tripinfo_h15454c2:3 routing_h15454c2:3" vType="default_016" speedFactor="1.05" vaporized=""/>
    <tripinfo id="carIn60260:1" depart="57606.00" departLane="315358254#0_1" departPos="5.10" departSpeed="0.00" departDelay="0.90" arrival="57673.00" arrivalLane="399835085#1_1" arrivalPos="212.23" arrivalSpeed="7.03" duration="67.00" routeLength="430.98" waitingTime="11.00" waitingCount="1" stopTime="0.00" timeLoss="20.26" rerouteNo="1" devices="tripinfo_carIn60260:1 routing_carIn60260:1" vType="default_016" speedFactor="0.98" vaporized=""/>
    <tripinfo id="carIn22761:1" depart="57616.00" departLane="-306240162#1_0" departPos="5.10" departSpeed="0.00" departDelay="2.10" arrival="57700.00" arrivalLane="399835085#1_1" arrivalPos="212.23" arrivalSpeed="8.85" duration="84.00" routeLength="1093.26" waitingTime="0.00" waitingCount="0" stopTime="0.00" timeLoss="17.47" rerouteNo="1" devices="tripinfo_carIn22761:1 routing_carIn22761:1" vType="default_016" speedFactor="1.18" vaporized=""/>
    <tripinfo id="carIn53971:1" depart="57640.00" departLane="272042143_1" departPos="5.10" departSpeed="0.00" departDelay="0.80" arrival="57703.00" arrivalLane="24634414#1_1" arrivalPos="162.19" arrivalSpeed="6.48" duration="63.00" routeLength="493.04" waitingTime="0.00" waitingCount="0" stopTime="0.00" timeLoss="7.98" rerouteNo="1" devices="tripinfo_carIn53971:1 routing_carIn53971:1" vType="default_016" speedFactor="0.83" vaporized=""/>
    <tripinfo id="h3688c1:1" depart="57625.00" departLane="201201950#1_1" departPos="5.10" departSpeed="0.00" departDelay="0.00" arrival="57719.00" arrivalLane="32978638#0_1" arrivalPos="49.29" arrivalSpeed="14.47" duration="94.00" routeLength="1089.75" waitingTime="8.00" waitingCount="1" stopTime="0.00" timeLoss="22.57" rerouteNo="1" devices="tripinfo_h3688c1:1 routing_h3688c1:1" vType="default_016" speedFactor="1.11" vaporized=""/>
    <tripinfo id="carIn80064:1" depart="57603.00" departLane="128361109#1_1" departPos="5.10" departSpeed="0.00" departDelay="0.40" arrival="57721.00" arrivalLane="-315358254#1_1" arrivalPos="137.16" arrivalSpeed="12.76" duration="118.00" routeLength="1587.97" waitingTime="3.00" waitingCount="1" stopTime="0.00" timeLoss="26.91" rerouteNo="1" devices="tripinfo_carIn80064:1 routing_carIn80064:1" vType="default_016" speedFactor="0.98" vaporized=""/>
    <tripinfo id="h3568c1:3" depart="57656.00" departLane="266565295#5_1" departPos="5.10" departSpeed="0.00" departDelay="0.80" arrival="57727.00" arrivalLane="-24634415_1" arrivalPos="62.03" arrivalSpeed="14.92" duration="71.00" routeLength="807.40" waitingTime="0.00" waitingCount="0" stopTime="0.00" timeLoss="12.47" rerouteNo="1" devices="tripinfo_h3568c1:3 routing_h3568c1:3" vType="default_016" speedFactor="1.10" vaporized=""/>
    <tripinfo id="h12244c1:3" depart="57612.00" departLane="315358244_1" departPos="5.10" departSpeed="0.00" departDelay="0.40" arrival="57736.00" arrivalLane="386687235_1" arrivalPos="80.84" arrivalSpeed="13.39" duration="124.00" routeLength="1186.14" waitingTime="22.00" waitingCount="2" stopTime="0.00" timeLoss="40.92" rerouteNo="1" devices="tripinfo_h12244c1:3 routing_h12244c1:3" vType="default_016" speedFactor="1.04" vaporized=""/>
    <tripinfo id="h7181c1:1" depart="57660.00" departLane="315358254#0_1" departPos="5.10" departSpeed="0.00" departDelay="0.10" arrival="57741.00" arrivalLane="306240162#0_0" arrivalPos="220.43" arrivalSpeed="15.05" duration="81.00" routeLength="932.35" waitingTime="10.00" waitingCount="2" stopTime="0.00" timeLoss="27.89" rerouteNo="1" devices="tripinfo_h7181c1:1 routing_h7181c1:1" vType="default_016" speedFactor="0.97" vaporized=""/>
    <tripinfo id="S5R_frequency1.2" depart="57615.00" departLane="315358250#0_1" departPos="12.10" departSpeed="0.00" departDelay="3.40" arrival="57742.00" arrivalLane="386687235_1" arrivalPos="80.84" arrivalSpeed="13.66" duration="127.00" routeLength="1115.62" waitingTime="18.00" waitingCount="2" stopTime="0.00" timeLoss="45.14" rerouteNo="1" devices="tripinfo_S5R_frequency1.2 routing_S5R_frequency1.2" vType="bus" speedFactor="1.00" vaporized=""/>
    <tripinfo id="h7800c1:5" depart="57696.00" departLane="-447569998#1_1" departPos="5.10" departSpeed="0.00" departDelay="0.00" arrival="57745.00" arrivalLane="-447569998#1_2" arrivalPos="180.76" arrivalSpeed="3.87" duration="49.00" routeLength="175.66" waitingTime="24.00" waitingCount="1" stopTime="0.00" timeLoss="30.60" rerouteNo="1" devices="tripinfo_h7800c1:5 routing_h7800c1:5" vType="default_016" speedFactor="1.16" vaporized=""/>
    <tripinfo id="h317c2:1" depart="57707.00" departLane="-32978638#0_1" departPos="5.10" departSpeed="0.00" departDelay="0.10" arrival="57753.00" arrivalLane="-266565295#5_1" arrivalPos="172.76" arrivalSpeed="15.50" duration="46.00" routeLength="370.53" waitingTime="11.00" waitingCount="1" stopTime="0.00" timeLoss="21.82" rerouteNo="1" devices="tripinfo_h317c2:1 routing_h317c2:1" vType="default_016" speedFactor="1.15" vaporized=""/>
    <tripinfo id="h3326c1:2" depart="57656.00" departLane="22716069#0_1" departPos="5.10" departSpeed="0.00" departDelay="0.00" arrival="57755.00" arrivalLane="24634517#13_1" arrivalPos="111.62" arrivalSpeed="15.02" duration="99.00" routeLength="1312.81" waitingTime="0.00" waitingCount="0" stopTime="0.00" timeLoss="14.77" rerouteNo="1" devices="tripinfo_h3326c1:2 routing_h3326c1:2" vType="default_016" speedFactor="1.15" vaporized=""/>
    <tripinfo id="h4538c1:1" depart="57701.00" departLane="-10427692#1_1" departPos="5.10" departSpeed="0.00" departDelay="0.00" arrival="57756.00" arrivalLane="-128361102#1_1" arrivalPos="274.68" arrivalSpeed="13.27" duration="55.00" routeLength="440.74" waitingTime="12.00" waitingCount="1" stopTime="0.00" timeLoss="23.93" rerouteNo="1" devices="tripinfo_h4538c1:1 routing_h4538c1:1" vType="default_016" speedFactor="1.03" vaporized=""/>
    <tripinfo id="carIn121703:1" depart="57647.00" departLane="386687232#0_1" departPos="5.10" departSpeed="0.00" departDelay="0.30" arrival="57758.00" arrivalLane="-315358244_1" arrivalPos="33.95" arrivalSpeed="10.29" duration="111.00" routeLength="1157.39" waitingTime="0.00" waitingCount="0" stopTime="0.00" timeLoss="9.59" rerouteNo="1" devices="tripinfo_carIn121703:1 routing_carIn121703:1" vType="default_016" speedFactor="0.83" vaporized=""/>
    <tripinfo id="carIn30817:1" depart="57681.00" departLane="315358244_1" departPos="5.10" departSpeed="0.00" departDelay="0.20" arrival="57763.00" arrivalLane="447569997#1_1" arrivalPos="180.93" arrivalSpeed="6.52" duration="82.00" routeLength="718.04" waitingTime="1.00" waitingCount="1" stopTime="0.00" timeLoss="11.74" rerouteNo="1" devices="tripinfo_carIn30817:1 routing_carIn30817:1" vType="default_016" speedFactor="0.88" vaporized=""/>
    <tripinfo id="h5979c1:5" depart="57669.00" departLane="399835085#1_1" departPos="5.10" departSpeed="0.00" departDelay="0.00" arrival="57766.00" arrivalLane="-315358254#1_1" arrivalPos="137.16" arrivalSpeed="16.55" duration="97.00" routeLength="659.33" waitingTime="17.00" waitingCount="2" stopTime="0.00" timeLoss="36.22" rerouteNo="1" devices="tripinfo_h5979c1:5 routing_h5979c1:5" vType="default_016" speedFactor="1.20" vaporized=""/>
    <tripinfo id="h3154c1:1" depart="57658.00" departLane="24634507_1" departPos="5.10" departSpeed="0.00" departDelay="0.00" arrival="57775.00" arrivalLane="-266565295#5_1" arrivalPos="172.76" arrivalSpeed="12.40" duration="117.00" routeLength="1206.22" waitingTime="7.00" waitingCount="1" stopTime="0.00" timeLoss="21.99" rerouteNo="1" devices="tripinfo_h3154c1:1 routing_h3154c1:1" vType="default_016" speedFactor="0.93" vaporized=""/>
    <tripinfo id="carIn86816:1" depart="57617.00" departLane="128361102#0_1" departPos="5.10" departSpeed="0.00" departDelay="0.80" arrival="57790.00" arrivalLane="201956811#0_1" arrivalPos="40.40" arrivalSpeed="13.00" duration="173.00" routeLength="2067.33" waitingTime="5.00" waitingCount="1" stopTime="0.00" timeLoss="24.69" rerouteNo="1" devices="tripinfo_carIn86816:1 routing_carIn86816:1" vType="default_016" speedFactor="1.02" vaporized=""/>
    <tripinfo id="h330c1:1" depart="57736.00" departLane="-32978638#0_1" departPos="5.10" departSpeed="0.00" departDelay="0.20" arrival="57795.00" arrivalLane="-266565295#5_1" arrivalPos="172.76" arrivalSpeed="14.79" duration="59.00" routeLength="370.53" waitingTime="22.00" waitingCount="1" stopTime="0.00" timeLoss="32.68" rerouteNo="1" devices="tripinfo_h330c1:1 routing_h330c1:1" vType="default_016" speedFactor="1.07" vaporized=""/>
    <tripinfo id="carIn107084:1" depart="57601.00" departLane="124812856#0_1" departPos="5.10" departSpeed="0.00" departDelay="0.70" arrival="57798.00" arrivalLane="-128361102#1_1" arrivalPos="274.68" arrivalSpeed="12.43" duration="197.00" routeLength="2250.49" waitingTime="2.00" waitingCount="1" stopTime="0.00" timeLoss="22.48" rerouteNo="1" devices="tripinfo_carIn107084:1 routing_carIn107084:1" vType="default_016" speedFactor="0.94" vaporized=""/>
    <tripinfo id="carIn77943:1" depart="57608.00" departLane="124812856#0_1" departPos="5.10" departSpeed="0.00" departDelay="2.50" arrival="57800.00" arrivalLane="-128361102#1_1" arrivalPos="274.68" arrivalSpeed="13.83" duration="192.00" routeLength="2250.49" waitingTime="0.00" waitingCount="0" stopTime="0.00" timeLoss="31.24" rerouteNo="1" devices="tripinfo_carIn77943:1 routing_carIn77943:1" vType="default_016" speedFactor="1.02" vaporized=""/>
    <tripinfo id="carIn81046:1" depart="57611.00" departLane="124812856#0_1" departPos="5.10" departSpeed="0.00" departDelay="2.50" arrival="57802.00" arrivalLane="-128361102#1_1" arrivalPos="274.68" arrivalSpeed="13.34" duration="191.00" routeLength="2250.49" waitingTime="0.00" waitingCount="0" stopTime="0.00" timeLoss="30.15" rerouteNo="1" devices="tripinfo_carIn81046:1 routing_carIn81046:1" vType="default_016" speedFactor="1.03" vaporized=""/>
    <tripinfo id="carIn77438:1" depart="57614.00" departLane="124812856#0_1" departPos="5.10" departSpeed="0.00" departDelay="1.10" arrival="57803.00" arrivalLane="-128361102#1_1" arrivalPos="274.68" arrivalSpeed="13.39" duration="189.00" routeLength="2250.49" waitingTime="0.00" waitingCount="0" stopTime="0.00" timeLoss="23.51" rerouteNo="1" devices="tripinfo_carIn77438:1 routing_carIn77438:1" vType="default_016" speedFactor="0.99" vaporized=""/>
    <tripinfo id="h19804c1:3" depart="57617.00" departLane="124812856#0_1" departPos="5.10" departSpeed="0.00" departDelay="1.50" arrival="57805.00" arrivalLane="-128361102#1_1" arrivalPos="274.68" arrivalSpeed="15.21" duration="188.00" routeLength="2232.46" waitingTime="7.00" waitingCount="1" stopTime="0.00" timeLoss="45.43" rerouteNo="1" devices="tripinfo_h19804c1:3 routing_h19804c1:3" vType="default_016" speedFactor="1.14" vaporized=""/>
    <tripinfo id="carIn102915:1" depart="57643.00" departLane="128361102#0_1" departPos="5.10" departSpeed="0.00" departDelay="0.40" arrival="57808.00" arrivalLane="201956811#0_1" arrivalPos="40.40" arrivalSpeed="13.26" duration="165.00" routeLength="2067.33" waitingTime="0.00" waitingCount="0" stopTime="0.00" timeLoss="17.95" rerouteNo="1" devices="tripinfo_carIn102915:1 routing_carIn102915:1" vType="default_016" speedFactor="1.03" vaporized=""/>
    <tripinfo id="h11737c1:1" depart="57665.00" departLane="272042143_1" departPos="5.10" departSpeed="0.00" departDelay="1.50" arrival="57808.00" arrivalLane="-315358254#1_1" arrivalPos="137.16" arrivalSpeed="11.77" duration="143.00" routeLength="1596.88" waitingTime="0.00" waitingCount="0" stopTime="0.00" timeLoss="15.03" rerouteNo="1" devices="tripinfo_h11737c1:1 routing_h11737c1:1" vType="default_016" speedFactor="0.92" vaporized=""/>
    <tripinfo id="carIn126288:1" depart="57674.00" departLane="272042143_1" departPos="5.10" departSpeed="0.00" departDelay="0.00" arrival="57810.00" arrivalLane="-315358254#1_1" arrivalPos="137.16" arrivalSpeed="13.66" duration="136.00" routeLength="1596.88" waitingTime="0.00" waitingCount="0" stopTime="0.00" timeLoss="19.26" rerouteNo="1" devices="tripinfo_carIn126288:1 routing_carIn126288:1" vType="default_016" speedFactor="1.00" vaporized=""/>
    <tripinfo id="carIn12365:1" depart="57713.00" departLane="315358244_1" departPos="5.10" departSpeed="0.00" departDelay="0.50" arrival="57811.00" arrivalLane="447569997#1_1" arrivalPos="180.93" arrivalSpeed="5.49" duration="98.00" routeLength="718.04" waitingTime="5.00" waitingCount="1" stopTime="0.00" timeLoss="19.89" rerouteNo="1" devices="tripinfo_carIn12365:1 routing_carIn12365:1" vType="default_016" speedFactor="0.79" vaporized=""/>
    <tripinfo id="carIn27009:1" depart="57673.00" departLane="-447569998#1_1" departPos="5.10" departSpeed="0.00" departDelay="0.50" arrival="57812.00" arrivalLane="-26677539_1" arrivalPos="152.75" arrivalSpeed="7.51" duration="139.00" routeLength="699.63" waitingTime="44.00" waitingCount="1" stopTime="0.00" timeLoss="56.25" rerouteNo="1" devices="tripinfo_carIn27009:1 routing_carIn27009:1" vType="default_015" speedFactor="1.01" vaporized=""/>
    <tripinfo id="randUni33724:1" depart="57646.00" departLane="128361102#0_1" departPos="5.10" departSpeed="0.00" departDelay="1.20" arrival="57816.00" arrivalLane="201956811#0_1" arrivalPos="40.40" arrivalSpeed="12.47" duration="170.00" routeLength="2067.33" waitingTime="0.00" waitingCount="0" stopTime="0.00" timeLoss="14.82" rerouteNo="1" devices="tripinfo_randUni33724:1 routing_randUni33724:1" vType="random_016" speedFactor="0.98" vaporized=""/>
    <tripinfo id="h9563c2:5" depart="57631.00" departLane="315358244_1" departPos="5.10" departSpeed="0.00" departDelay="0.70" arrival="57817.00" arrivalLane="386687235_1" arrivalPos="80.84" arrivalSpeed="11.87" duration="186.00" routeLength="1186.14" waitingTime="68.00" waitingCount="3" stopTime="0.00" timeLoss="92.00" rerouteNo="1" devices="tripinfo_h9563c2:5 routing_h9563c2:5" vType="default_016" speedFactor="0.92" vaporized=""/>
    <tripinfo id="carIn81860:1" depart="57712.00" departLane="128361102#0_1" departPos="5.10" departSpeed="0.00" departDelay="0.60" arrival="57817.00" arrivalLane="-24634517#17_1" arrivalPos="6.43" arrivalSpeed="7.51" duration="105.00" routeLength="1229.64" waitingTime="0.00" waitingCount="0" stopTime="0.00" timeLoss="14.93" rerouteNo="1" devices="tripinfo_carIn81860:1 routing_carIn81860:1" vType="default_016" speedFactor="1.00" vaporized=""/>
    <tripinfo id="carIn118591:1" depart="57689.00" departLane="315358244_1" departPos="5.10" departSpeed="0.00" departDelay="0.20" arrival="57819.00" arrivalLane="386687235_1" arrivalPos="80.84" arrivalSpeed="13.81" duration="130.00" routeLength="1186.14" waitingTime="19.00" waitingCount="2" stopTime="0.00" timeLoss="44.05" rerouteNo="1" devices="tripinfo_carIn118591:1 routing_carIn118591:1" vType="default_016" speedFactor="1.01" vaporized=""/>
    <tripinfo id="carIn462:1" depart="57622.00" departLane="-306240162#1_0" departPos="5.10" departSpeed="0.00" departDelay="4.80" arrival="57821.00" arrivalLane="386687235_2" arrivalPos="80.84" arrivalSpeed="14.13" duration="199.00" routeLength="2257.41" waitingTime="14.00" waitingCount="2" stopTime="0.00" timeLoss="55.87" rerouteNo="1" devices="tripinfo_carIn462:1 routing_carIn462:1" vType="default_016" speedFactor="1.04" vaporized=""/>
    <tripinfo id="carIn12858:1" depart="57661.00" departLane="128361109#1_1" departPos="5.10" departSpeed="0.00" departDelay="0.90" arrival="57822.00" arrivalLane="399835085#1_1" arrivalPos="212.23" arrivalSpeed="7.67" duration="161.00" routeLength="1738.12" waitingTime="19.00" waitingCount="3" stopTime="0.00" timeLoss="52.66" rerouteNo="1" devices="tripinfo_carIn12858:1 routing_carIn12858:1" vType="default_016" speedFactor="1.06" vaporized=""/>
    <tripinfo id="carIn82220:1" depart="57619.00" departLane="-306240162#1_0" departPos="5.10" departSpeed="0.00" departDelay="3.50" arrival="57823.00" arrivalLane="386687235_1" arrivalPos="80.84" arrivalSpeed="14.32" duration="204.00" routeLength="2257.41" waitingTime="15.00" waitingCount="2" stopTime="0.00" timeLoss="59.77" rerouteNo="1" devices="tripinfo_carIn82220:1 routing_carIn82220:1" vType="default_016" speedFactor="1.03" vaporized=""/>
    <tripinfo id="h645c1:1" depart="57622.00" departLane="266565295#5_1" departPos="5.10" departSpeed="0.00" departDelay="0.40" arrival="57823.00" arrivalLane="-315358244_2" arrivalPos="33.95" arrivalSpeed="15.17" duration="201.00" routeLength="1910.83" waitingTime="48.00" waitingCount="3" stopTime="0.00" timeLoss="76.32" rerouteNo="1" devices="tripinfo_h645c1:1 routing_h645c1:1" vType="default_016" speedFactor="1.11" vaporized=""/>
    <tripinfo id="carIn129809:1" depart="57729.00" departLane="-447569998#1_1" departPos="5.10" departSpeed="0.00" departDelay="1.00" arrival="57824.00" arrivalLane="-315358244_1" arrivalPos="33.95" arrivalSpeed="12.68" duration="95.00" routeLength="706.49" waitingTime="16.00" waitingCount="2" stopTime="0.00" timeLoss="29.11" rerouteNo="1" devices="tripinfo_carIn129809:1 routing_carIn129809:1" vType="default_015" speedFactor="0.92" vaporized=""/>
    <tripinfo id="carIn48184:1" depart="57613.00" departLane="-306240162#1_0" departPos="5.10" departSpeed="0.00" departDelay="0.70" arrival="57826.00" arrivalLane="386687235_1" arrivalPos="80.84" arrivalSpeed="11.15" duration="213.00" routeLength="2257.41" waitingTime="16.00" waitingCount="2" stopTime="0.00" timeLoss="42.55" rerouteNo="1" devices="tripinfo_carIn48184:1 routing_carIn48184:1" vType="default_016" speedFactor="0.88" vaporized=""/>
    <tripinfo id="randUni15030:1" depart="57735.00" departLane="386687232#0_1" departPos="5.10" departSpeed="0.00" departDelay="0.10" arrival="57828.00" arrivalLane="26677539_1" arrivalPos="151.98" arrivalSpeed="8.21" duration="93.00" routeLength="919.89" waitingTime="0.00" waitingCount="0" stopTime="0.00" timeLoss="11.67" rerouteNo="1" devices="tripinfo_randUni15030:1 routing_randUni15030:1" vType="random_016" speedFactor="1.03" vaporized=""/>
    <tripinfo id="carIn100288:1" depart="57664.00" departLane="128361102#0_1" departPos="5.10" departSpeed="0.00" departDelay="0.60" arrival="57831.00" arrivalLane="201956811#0_1" arrivalPos="40.40" arrivalSpeed="13.39" duration="167.00" routeLength="2067.33" waitingTime="0.00" waitingCount="0" stopTime="0.00" timeLoss="16.71" rerouteNo="1" devices="tripinfo_carIn100288:1 routing_carIn100288:1" vType="default_016" speedFactor="1.01" vaporized=""/>
    <tripinfo id="carIn29531:1" depart="57667.00" departLane="128361102#0_1" departPos="5.10" departSpeed="0.00" departDelay="1.60" arrival="57833.00" arrivalLane="201956811#0_1" arrivalPos="40.40" arrivalSpeed="14.06" duration="166.00" routeLength="2067.33" waitingTime="0.00" waitingCount="0" stopTime="0.00" timeLoss="18.54" rerouteNo="1" devices="tripinfo_carIn29531:1 routing_carIn29531:1" vType="default_016" speedFactor="1.02" vaporized=""/>
    <tripinfo id="carIn73855:1" depart="57743.00" departLane="386687232#0_1" departPos="5.10" departSpeed="0.00" departDelay="0.50" arrival="57834.00" arrivalLane="-315358244_1" arrivalPos="33.95" arrivalSpeed="14.13" duration="91.00" routeLength="1157.39" waitingTime="0.00" waitingCount="0" stopTime="0.00" timeLoss="8.33" rerouteNo="1" devices="tripinfo_carIn73855:1 routing_carIn73855:1" vType="default_016" speedFactor="1.02" vaporized=""/>
    <tripinfo id="50R_frequency3.17" depart="57674.00" departLane="-18809673#6_1" departPos="12.10" departSpeed="0.00" departDelay="0.70" arrival="57836.00" arrivalLane="201956811#0_1" arrivalPos="40.40" arrivalSpeed="13.35" duration="162.00" routeLength="1954.47" waitingTime="0.00" waitingCount="0" stopTime="0.00" timeLoss="16.73" rerouteNo="1" devices="tripinfo_50R_frequency3.17 routing_50R_frequency3.17" vType="bus" speedFactor="1.00" vaporized=""/>
    <tripinfo id="carIn82278:1" depart="57702.00" departLane="-306240162#1_0" departPos="5.10" departSpeed="0.00" departDelay="0.70" arrival="57838.00" arrivalLane="399835085#1_1" arrivalPos="212.23" arrivalSpeed="6.66" duration="136.00" routeLength="1093.26" waitingTime="13.00" waitingCount="2" stopTime="0.00" timeLoss="38.61" rerouteNo="1" devices="tripinfo_carIn82278:1 routing_carIn82278:1" vType="default_016" speedFactor="0.80" vaporized=""/>
    <tripinfo id="carIn107842:1" depart="57623.00" departLane="124812856#0_1" departPos="5.10" departSpeed="0.00" departDelay="1.90" arrival="57839.00" arrivalLane="-128361102#1_1" arrivalPos="274.68" arrivalSpeed="11.42" duration="216.00" routeLength="2250.49" waitingTime="0.00" waitingCount="0" stopTime="0.00" timeLoss="23.48" rerouteNo="1" devices="tripinfo_carIn107842:1 routing_carIn107842:1" vType="default_016" speedFactor="0.85" vaporized=""/>
    <tripinfo id="h16072c2:3" depart="57663.00" departLane="315358254#0_1" departPos="5.10" departSpeed="0.00" departDelay="2.50" arrival="57839.00" arrivalLane="386687235_1" arrivalPos="80.84" arrivalSpeed="12.95" duration="176.00" routeLength="1611.92" waitingTime="20.00" waitingCount="4" stopTime="0.00" timeLoss="55.71" rerouteNo="1" devices="tripinfo_h16072c2:3 routing_h16072c2:3" vType="default_016" speedFactor="0.98" vaporized=""/>
    <tripinfo id="carIn50326:1" depart="57651.00" departLane="128361102#0_1" departPos="5.10" departSpeed="0.00" departDelay="0.30" arrival="57840.00" arrivalLane="18809673#0_1" arrivalPos="473.56" arrivalSpeed="10.80" duration="189.00" routeLength="1591.07" waitingTime="12.00" waitingCount="1" stopTime="0.00" timeLoss="32.64" rerouteNo="1" devices="tripinfo_carIn50326:1 routing_carIn50326:1" vType="default_016" speedFactor="0.83" vaporized=""/>
    <tripinfo id="h15382c1:3" depart="57626.00" departLane="124812856#0_1" departPos="5.10" departSpeed="0.00" departDelay="3.80" arrival="57841.00" arrivalLane="-128361102#1_1" arrivalPos="274.68" arrivalSpeed="12.22" duration="215.00" routeLength="2250.49" waitingTime="0.00" waitingCount="0" stopTime="0.00" timeLoss="34.98" rerouteNo="1" devices="tripinfo_h15382c1:3 routing_h15382c1:3" vType="default_016" speedFactor="0.91" vaporized=""/>
    <tripinfo id="h3864c1:3" depart="57678.00" departLane="24693977#1_1" departPos="5.10" departSpeed="0.00" departDelay="0.00" arrival="57841.00" arrivalLane="201956820_1" arrivalPos="48.33" arrivalSpeed="12.93" duration="163.00" routeLength="1574.85" waitingTime="3.00" waitingCount="1" stopTime="0.00" timeLoss="26.49" rerouteNo="1" devices="tripinfo_h3864c1:3 routing_h3864c1:3" vType="default_016" speedFactor="0.95" vaporized=""/>
    <tripinfo id="carIn107282:1" depart="57749.00" departLane="-447569998#1_1" departPos="5.10" departSpeed="0.00" departDelay="0.00" arrival="57842.00" arrivalLane="315358242#0_1" arrivalPos="165.37" arrivalSpeed="9.54" duration="93.00" routeLength="448.50" waitingTime="28.00" waitingCount="1" stopTime="0.00" timeLoss="37.70" rerouteNo="1" devices="tripinfo_carIn107282:1 routing_carIn107282:1" vType="default_016" speedFactor="0.75" vaporized=""/>
    <tripinfo id="carIn3969:1" depart="57629.00" departLane="124812856#0_1" departPos="5.10" departSpeed="0.00" departDelay="5.30" arrival="57843.00" arrivalLane="-128361102#1_1" arrivalPos="274.68" arrivalSpeed="14.69" duration="214.00" routeLength="2250.49" waitingTime="0.00" waitingCount="0" stopTime="0.00" timeLoss="65.87" rerouteNo="1" devices="tripinfo_carIn3969:1 routing_carIn3969:1" vType="default_016" speedFactor="1.11" vaporized=""/>
    <tripinfo id="carIn56649:1" depart="57631.00" departLane="124812856#0_1" departPos="5.10" departSpeed="0.00" departDelay="7.10" arrival="57845.00" arrivalLane="-128361102#1_1" arrivalPos="274.68" arrivalSpeed="12.69" duration="214.00" routeLength="2250.49" waitingTime="0.00" waitingCount="0" stopTime="0.00" timeLoss="46.85" rerouteNo="1" devices="tripinfo_carIn56649:1 routing_carIn56649:1" vType="default_016" speedFactor="0.99" vaporized=""/>
    <tripinfo id="carIn126378:1" depart="57746.00" departLane="386687232#0_1" departPos="5.10" departSpeed="0.00" departDelay="1.80" arrival="57847.00" arrivalLane="-315358244_1" arrivalPos="33.95" arrivalSpeed="11.83" duration="101.00" routeLength="1157.39" waitingTime="0.00" waitingCount="0" stopTime="0.00" timeLoss="9.44" rerouteNo="1" devices="tripinfo_carIn126378:1 routing_carIn126378:1" vType="default_016" speedFactor="0.92" vaporized=""/>
    <tripinfo id="randUni10474:1" depart="57605.00" departLane="124812856#0_1" departPos="5.10" departSpeed="0.00" departDelay="0.20" arrival="57852.00" arrivalLane="306240162#0_0" arrivalPos="220.43" arrivalSpeed="14.74" duration="247.00" routeLength="3049.32" waitingTime="5.00" waitingCount="1" stopTime="0.00" timeLoss="41.62" rerouteNo="1" devices="tripinfo_randUni10474:1 routing_randUni10474:1" vType="random_016" speedFactor="0.96" vaporized=""/>
    <tripinfo id="randUni31145:1" depart="57814.00" departLane="10425609#0_1" departPos="5.10" departSpeed="0.00" departDelay="0.30" arrival="57854.00" arrivalLane="201956810_1" arrivalPos="71.65" arrivalSpeed="13.44" duration="40.00" routeLength="255.78" waitingTime="9.00" waitingCount="1" stopTime="0.00" timeLoss="20.77" rerouteNo="1" devices="tripinfo_randUni31145:1 routing_randUni31145:1" vType="random_016" speedFactor="1.01" vaporized=""/>
    <tripinfo id="carIn116184:1" depart="57627.00" departLane="-306240162#1_0" departPos="5.10" departSpeed="0.00" departDelay="0.10" arrival="57855.00" arrivalLane="386687235_1" arrivalPos="80.84" arrivalSpeed="11.11" duration="228.00" routeLength="2257.41" waitingTime="16.00" waitingCount="3" stopTime="0.00" timeLoss="56.46" rerouteNo="1" devices="tripinfo_carIn116184:1 routing_carIn116184:1" vType="default_016" speedFactor="0.87" vaporized=""/>
    <tripinfo id="carIn8642:1" depart="57774.00" departLane="-447569998#1_1" departPos="5.10" departSpeed="0.00" departDelay="0.90" arrival="57856.00" arrivalLane="-315358244_1" arrivalPos="33.95" arrivalSpeed="13.94" duration="82.00" routeLength="706.49" waitingTime="14.00" waitingCount="1" stopTime="0.00" timeLoss="24.33" rerouteNo="1" devices="tripinfo_carIn8642:1 routing_carIn8642:1" vType="default_016" speedFactor="1.05" vaporized=""/>
    <tripinfo id="carIn12152:1" depart="57647.00" departLane="24599188#0.94_1" departPos="5.10" departSpeed="0.00" departDelay="0.50" arrival="57858.00" arrivalLane="-315358254#1_1" arrivalPos="137.16" arrivalSpeed="12.50" duration="211.00" routeLength="2034.31" waitingTime="14.00" waitingCount="2" stopTime="0.00" timeLoss="37.07" rerouteNo="1" devices="tripinfo_carIn12152:1 routing_carIn12152:1" vType="default_016" speedFactor="0.91" vaporized=""/>
    <tripinfo id="carIn28951:1" depart="57606.00" departLane="10425609#0_1" departPos="5.10" departSpeed="0.00" departDelay="0.20" arrival="57859.00" arrivalLane="-128361102#1_1" arrivalPos="274.68" arrivalSpeed="12.55" duration="253.00" routeLength="2113.04" waitingTime="56.00" waitingCount="3" stopTime="0.00" timeLoss="88.67" rerouteNo="1" devices="tripinfo_carIn28951:1 routing_carIn28951:1" vType="default_016" speedFactor="0.95" vaporized=""/>
    <tripinfo id="h6541c1:3" depart="57727.00" departLane="201950247#3_1" departPos="5.10" departSpeed="0.00" departDelay="0.00" arrival="57859.00" arrivalLane="32978638#0_1" arrivalPos="49.29" arrivalSpeed="14.32" duration="132.00" routeLength="1176.17" waitingTime="10.00" waitingCount="1" stopTime="0.00" timeLoss="34.06" rerouteNo="1" devices="tripinfo_h6541c1:3 routing_h6541c1:3" vType="default_016" speedFactor="1.05" vaporized=""/>
    <tripinfo id="h20540c1:1" depart="57634.00" departLane="10425609#0_1" departPos="5.10" departSpeed="0.00" departDelay="0.50" arrival="57860.00" arrivalLane="-128361102#1_1" arrivalPos="274.68" arrivalSpeed="14.89" duration="226.00" routeLength="2113.04" waitingTime="27.00" waitingCount="3" stopTime="0.00" timeLoss="89.12" rerouteNo="1" devices="tripinfo_h20540c1:1 routing_h20540c1:1" vType="default_016" speedFactor="1.13" vaporized=""/>
    <tripinfo id="randUni2407:1" depart="57820.00" departLane="10425609#0_1" departPos="5.10" departSpeed="0.00" departDelay="0.80" arrival="57860.00" arrivalLane="201956810_1" arrivalPos="71.65" arrivalSpeed="11.20" duration="40.00" routeLength="255.78" waitingTime="5.00" waitingCount="1" stopTime="0.00" timeLoss="15.56" rerouteNo="1" devices="tripinfo_randUni2407:1 routing_randUni2407:1" vType="random_016" speedFactor="0.82" vaporized=""/>