<?xml version="1.0" encoding="UTF-8"?>

<!-- generated on 12/20/21 13:38:16 by Eclipse SUMO sumo Version 1.7.0
<configuration xmlns:xsi="http://www.w3.org/2001/XMLSchema-instance" xsi:noNamespaceSchemaLocation="http://sumo.dlr.de/xsd/sumoConfiguration.xsd">

    <input>
        <net-file value="C:\Users\longs\Desktop\RESCO-main\environments/ingolstadt21/ingolstadt21.net.xml"/>
        <route-files value="C:\Users\longs\Desktop\RESCO-main\environments/ingolstadt21/ingolstadt21.rou.xml"/>
    </input>

    <output>
        <tripinfo-output value="C:\Users\longs\Desktop\RESCO-main\logs\IDQN-tr1-ingolstadt21-21-drqlong-delaydiff_pressure09\tripinfo_14.xml"/>
        <tripinfo-output.write-unfinished value="true"/>
    </output>

    <time>
        <begin value="57600"/>
        <end value="61200"/>
    </time>

    <processing>
        <time-to-teleport value="-1"/>
    </processing>

    <report>
        <no-warnings value="true"/>
        <no-step-log value="true"/>
    </report>

    <traci_server>
        <remote-port value="61254"/>
    </traci_server>

    <random_number>
        <random value="true"/>
    </random_number>

</configuration>
-->

<tripinfos xmlns:xsi="http://www.w3.org/2001/XMLSchema-instance" xsi:noNamespaceSchemaLocation="http://sumo.dlr.de/xsd/tripinfo_file.xsd">
    <tripinfo id="h15454c2:3" depart="57612.00" departLane="24608844_1" departPos="5.10" departSpeed="0.00" departDelay="0.50" arrival="57652.00" arrivalLane="32978638#0_1" arrivalPos="49.29" arrivalSpeed="12.56" duration="40.00" routeLength="354.79" waitingTime="0.00" waitingCount="0" stopTime="0.00" timeLoss="4.09" rerouteNo="1" devices="tripinfo_h15454c2:3 routing_h15454c2:3" vType="default_016" speedFactor="0.96" vaporized=""/>
    <tripinfo id="carIn60260:1" depart="57606.00" departLane="315358254#0_1" departPos="5.10" departSpeed="0.00" departDelay="0.90" arrival="57681.00" arrivalLane="399835085#1_1" arrivalPos="212.23" arrivalSpeed="7.94" duration="75.00" routeLength="430.98" waitingTime="21.00" waitingCount="1" stopTime="0.00" timeLoss="30.56" rerouteNo="1" devices="tripinfo_carIn60260:1 routing_carIn60260:1" vType="default_016" speedFactor="1.04" vaporized=""/>
    <tripinfo id="carIn53971:1" depart="57640.00" departLane="272042143_1" departPos="5.10" departSpeed="0.00" departDelay="0.80" arrival="57701.00" arrivalLane="24634414#1_1" arrivalPos="162.19" arrivalSpeed="7.07" duration="61.00" routeLength="493.04" waitingTime="0.00" waitingCount="0" stopTime="0.00" timeLoss="8.88" rerouteNo="1" devices="tripinfo_carIn53971:1 routing_carIn53971:1" vType="default_016" speedFactor="0.88" vaporized=""/>
    <tripinfo id="h3688c1:1" depart="57625.00" departLane="201201950#1_1" departPos="5.10" departSpeed="0.00" departDelay="0.00" arrival="57724.00" arrivalLane="32978638#0_1" arrivalPos="49.29" arrivalSpeed="14.87" duration="99.00" routeLength="1089.75" waitingTime="12.00" waitingCount="2" stopTime="0.00" timeLoss="29.73" rerouteNo="1" devices="tripinfo_h3688c1:1 routing_h3688c1:1" vType="default_016" speedFactor="1.16" vaporized=""/>
    <tripinfo id="h7800c1:5" depart="57696.00" departLane="-447569998#1_1" departPos="5.10" departSpeed="0.00" departDelay="0.00" arrival="57725.00" arrivalLane="-447569998#1_2" arrivalPos="180.76" arrivalSpeed="4.70" duration="29.00" routeLength="175.66" waitingTime="0.00" waitingCount="0" stopTime="0.00" timeLoss="6.71" rerouteNo="1" devices="tripinfo_h7800c1:5 routing_h7800c1:5" vType="default_016" speedFactor="0.97" vaporized=""/>
    <tripinfo id="h3568c1:3" depart="57656.00" departLane="266565295#5_1" departPos="5.10" departSpeed="0.00" departDelay="0.80" arrival="57729.00" arrivalLane="-24634415_1" arrivalPos="62.03" arrivalSpeed="13.65" duration="73.00" routeLength="807.40" waitingTime="0.00" waitingCount="0" stopTime="0.00" timeLoss="11.40" rerouteNo="1" devices="tripinfo_h3568c1:3 routing_h3568c1:3" vType="default_016" speedFactor="1.06" vaporized=""/>
    <tripinfo id="h317c2:1" depart="57707.00" departLane="-32978638#0_1" departPos="5.10" departSpeed="0.00" departDelay="0.10" arrival="57738.00" arrivalLane="-266565295#5_1" arrivalPos="172.76" arrivalSpeed="14.39" duration="31.00" routeLength="370.53" waitingTime="0.00" waitingCount="0" stopTime="0.00" timeLoss="6.00" rerouteNo="1" devices="tripinfo_h317c2:1 routing_h317c2:1" vType="default_016" speedFactor="1.11" vaporized=""/>
    <tripinfo id="h4538c1:1" depart="57701.00" departLane="-10427692#1_1" departPos="5.10" departSpeed="0.00" departDelay="0.00" arrival="57742.00" arrivalLane="-128361102#1_1" arrivalPos="274.68" arrivalSpeed="11.88" duration="41.00" routeLength="440.74" waitingTime="0.00" waitingCount="0" stopTime="0.00" timeLoss="6.32" rerouteNo="1" devices="tripinfo_h4538c1:1 routing_h4538c1:1" vType="default_016" speedFactor="0.93" vaporized=""/>
    <tripinfo id="carIn121703:1" depart="57647.00" departLane="386687232#0_1" departPos="5.10" departSpeed="0.00" departDelay="0.30" arrival="57754.00" arrivalLane="-315358244_1" arrivalPos="33.95" arrivalSpeed="12.20" duration="107.00" routeLength="1157.39" waitingTime="0.00" waitingCount="0" stopTime="0.00" timeLoss="14.13" rerouteNo="1" devices="tripinfo_carIn121703:1 routing_carIn121703:1" vType="default_016" speedFactor="0.91" vaporized=""/>
    <tripinfo id="h7181c1:1" depart="57660.00" departLane="315358254#0_1" departPos="5.10" departSpeed="0.00" departDelay="0.10" arrival="57762.00" arrivalLane="306240162#0_0" arrivalPos="220.43" arrivalSpeed="15.69" duration="102.00" routeLength="932.35" waitingTime="27.00" waitingCount="2" stopTime="0.00" timeLoss="47.39" rerouteNo="1" devices="tripinfo_h7181c1:1 routing_h7181c1:1" vType="default_016" speedFactor="0.95" vaporized=""/>
    <tripinfo id="carIn22761:1" depart="57615.00" departLane="-306240162#1_0" departPos="5.10" departSpeed="0.00" departDelay="1.10" arrival="57764.00" arrivalLane="399835085#1_1" arrivalPos="212.23" arrivalSpeed="7.60" duration="149.00" routeLength="1093.26" waitingTime="47.00" waitingCount="1" stopTime="0.00" timeLoss="71.48" rerouteNo="1" devices="tripinfo_carIn22761:1 routing_carIn22761:1" vType="default_016" speedFactor="1.01" vaporized=""/>
    <tripinfo id="h5979c1:5" depart="57669.00" departLane="399835085#1_1" departPos="5.10" departSpeed="0.00" departDelay="0.00" arrival="57764.00" arrivalLane="-315358254#1_1" arrivalPos="137.16" arrivalSpeed="12.36" duration="95.00" routeLength="659.33" waitingTime="0.00" waitingCount="0" stopTime="0.00" timeLoss="12.65" rerouteNo="1" devices="tripinfo_h5979c1:5 routing_h5979c1:5" vType="default_016" speedFactor="0.90" vaporized=""/>
    <tripinfo id="S5R_frequency1.2" depart="57615.00" departLane="315358250#0_1" departPos="12.10" departSpeed="0.00" departDelay="3.40" arrival="57767.00" arrivalLane="386687235_1" arrivalPos="80.84" arrivalSpeed="13.41" duration="152.00" routeLength="1115.62" waitingTime="45.00" waitingCount="2" stopTime="0.00" timeLoss="70.40" rerouteNo="1" devices="tripinfo_S5R_frequency1.2 routing_S5R_frequency1.2" vType="bus" speedFactor="1.00" vaporized=""/>
    <tripinfo id="h330c1:1" depart="57736.00" departLane="-32978638#0_1" departPos="5.10" departSpeed="0.00" departDelay="0.20" arrival="57768.00" arrivalLane="-266565295#5_1" arrivalPos="172.76" arrivalSpeed="14.27" duration="32.00" routeLength="370.53" waitingTime="0.00" waitingCount="0" stopTime="0.00" timeLoss="6.14" rerouteNo="1" devices="tripinfo_h330c1:1 routing_h330c1:1" vType="default_016" speedFactor="1.07" vaporized=""/>
    <tripinfo id="carIn80064:1" depart="57603.00" departLane="128361109#1_1" departPos="5.10" departSpeed="0.00" departDelay="0.40" arrival="57769.00" arrivalLane="-315358254#1_1" arrivalPos="137.16" arrivalSpeed="11.64" duration="166.00" routeLength="1587.97" waitingTime="38.00" waitingCount="3" stopTime="0.00" timeLoss="68.70" rerouteNo="1" devices="tripinfo_carIn80064:1 routing_carIn80064:1" vType="default_016" speedFactor="0.93" vaporized=""/>
    <tripinfo id="h3326c1:2" depart="57656.00" departLane="22716069#0_1" departPos="5.10" departSpeed="0.00" departDelay="0.00" arrival="57775.00" arrivalLane="24634517#13_1" arrivalPos="111.62" arrivalSpeed="12.43" duration="119.00" routeLength="1312.81" waitingTime="0.00" waitingCount="0" stopTime="0.00" timeLoss="13.91" rerouteNo="1" devices="tripinfo_h3326c1:2 routing_h3326c1:2" vType="default_016" speedFactor="0.93" vaporized=""/>
    <tripinfo id="carIn30817:1" depart="57681.00" departLane="315358244_1" departPos="5.10" departSpeed="0.00" departDelay="0.20" arrival="57784.00" arrivalLane="447569997#1_1" arrivalPos="180.93" arrivalSpeed="7.09" duration="103.00" routeLength="718.04" waitingTime="18.00" waitingCount="2" stopTime="0.00" timeLoss="35.66" rerouteNo="1" devices="tripinfo_carIn30817:1 routing_carIn30817:1" vType="default_016" speedFactor="0.92" vaporized=""/>
    <tripinfo id="h3154c1:1" depart="57658.00" departLane="24634507_1" departPos="5.10" departSpeed="0.00" departDelay="0.00" arrival="57796.00" arrivalLane="-266565295#5_1" arrivalPos="172.76" arrivalSpeed="13.72" duration="138.00" routeLength="1206.22" waitingTime="34.00" waitingCount="2" stopTime="0.00" timeLoss="54.21" rerouteNo="1" devices="tripinfo_h3154c1:1 routing_h3154c1:1" vType="default_016" speedFactor="1.06" vaporized=""/>
    <tripinfo id="carIn27009:1" depart="57673.00" departLane="-447569998#1_1" departPos="5.10" departSpeed="0.00" departDelay="0.50" arrival="57797.00" arrivalLane="-26677539_1" arrivalPos="152.75" arrivalSpeed="7.46" duration="124.00" routeLength="699.63" waitingTime="21.00" waitingCount="1" stopTime="0.00" timeLoss="36.64" rerouteNo="1" devices="tripinfo_carIn27009:1 routing_carIn27009:1" vType="default_015" speedFactor="0.96" vaporized=""/>
    <tripinfo id="carIn107282:1" depart="57749.00" departLane="-447569998#1_1" departPos="5.10" departSpeed="0.00" departDelay="0.00" arrival="57805.00" arrivalLane="315358242#0_1" arrivalPos="165.37" arrivalSpeed="13.53" duration="56.00" routeLength="448.50" waitingTime="7.00" waitingCount="1" stopTime="0.00" timeLoss="15.43" rerouteNo="1" devices="tripinfo_carIn107282:1 routing_carIn107282:1" vType="default_016" speedFactor="1.03" vaporized=""/>
    <tripinfo id="h645c1:1" depart="57622.00" departLane="266565295#5_1" departPos="5.10" departSpeed="0.00" departDelay="0.40" arrival="57811.00" arrivalLane="-315358244_1" arrivalPos="33.95" arrivalSpeed="15.10" duration="189.00" routeLength="1910.83" waitingTime="40.00" waitingCount="2" stopTime="0.00" timeLoss="61.33" rerouteNo="1" devices="tripinfo_h645c1:1 routing_h645c1:1" vType="default_016" speedFactor="1.09" vaporized=""/>
    <tripinfo id="h11737c1:1" depart="57665.00" departLane="272042143_1" departPos="5.10" departSpeed="0.00" departDelay="1.50" arrival="57828.00" arrivalLane="-315358254#1_1" arrivalPos="137.16" arrivalSpeed="12.13" duration="163.00" routeLength="1596.88" waitingTime="18.00" waitingCount="2" stopTime="0.00" timeLoss="38.84" rerouteNo="1" devices="tripinfo_h11737c1:1 routing_h11737c1:1" vType="default_016" speedFactor="0.94" vaporized=""/>
    <tripinfo id="carIn126288:1" depart="57674.00" departLane="272042143_1" departPos="5.10" departSpeed="0.00" departDelay="0.00" arrival="57830.00" arrivalLane="-315358254#1_1" arrivalPos="137.16" arrivalSpeed="12.40" duration="156.00" routeLength="1596.88" waitingTime="15.00" waitingCount="1" stopTime="0.00" timeLoss="37.18" rerouteNo="1" devices="tripinfo_carIn126288:1 routing_carIn126288:1" vType="default_016" speedFactor="0.99" vaporized=""/>
    <tripinfo id="carIn12152:1" depart="57647.00" departLane="24599188#0.94_1" departPos="5.10" departSpeed="0.00" departDelay="0.50" arrival="57831.00" arrivalLane="-315358254#1_1" arrivalPos="137.16" arrivalSpeed="13.82" duration="184.00" routeLength="2034.31" waitingTime="10.00" waitingCount="1" stopTime="0.00" timeLoss="31.09" rerouteNo="1" devices="tripinfo_carIn12152:1 routing_carIn12152:1" vType="default_016" speedFactor="1.03" vaporized=""/>
    <tripinfo id="carIn28951:1" depart="57606.00" departLane="10425609#0_1" departPos="5.10" departSpeed="0.00" departDelay="0.20" arrival="57834.00" arrivalLane="-128361102#1_1" arrivalPos="274.68" arrivalSpeed="11.88" duration="228.00" routeLength="2113.04" waitingTime="30.00" waitingCount="2" stopTime="0.00" timeLoss="53.86" rerouteNo="1" devices="tripinfo_carIn28951:1 routing_carIn28951:1" vType="default_016" speedFactor="0.89" vaporized=""/>
    <tripinfo id="h20540c1:1" depart="57634.00" departLane="10425609#0_1" departPos="5.10" departSpeed="0.00" departDelay="0.50" arrival="57836.00" arrivalLane="-128361102#1_1" arrivalPos="274.68" arrivalSpeed="13.34" duration="202.00" routeLength="2113.04" waitingTime="3.00" waitingCount="1" stopTime="0.00" timeLoss="45.60" rerouteNo="1" devices="tripinfo_h20540c1:1 routing_h20540c1:1" vType="default_016" speedFactor="0.99" vaporized=""/>
    <tripinfo id="carIn77943:1" depart="57608.00" departLane="124812856#0_1" departPos="5.10" departSpeed="0.00" departDelay="2.50" arrival="57837.00" arrivalLane="-128361102#1_1" arrivalPos="274.68" arrivalSpeed="13.52" duration="229.00" routeLength="2232.46" waitingTime="36.00" waitingCount="3" stopTime="0.00" timeLoss="91.66" rerouteNo="1" devices="tripinfo_carIn77943:1 routing_carIn77943:1" vType="default_016" speedFactor="1.19" vaporized=""/>
    <tripinfo id="50R_frequency3.17" depart="57674.00" departLane="-18809673#6_1" departPos="12.10" departSpeed="0.00" departDelay="0.70" arrival="57837.00" arrivalLane="201956811#0_1" arrivalPos="40.40" arrivalSpeed="11.72" duration="163.00" routeLength="1954.47" waitingTime="0.00" waitingCount="0" stopTime="0.00" timeLoss="18.51" rerouteNo="1" devices="tripinfo_50R_frequency3.17 routing_50R_frequency3.17" vType="bus" speedFactor="1.00" vaporized=""/>
    <tripinfo id="carIn129809:1" depart="57729.00" departLane="-447569998#1_1" departPos="5.10" departSpeed="0.00" departDelay="1.00" arrival="57843.00" arrivalLane="-315358244_1" arrivalPos="33.95" arrivalSpeed="13.68" duration="114.00" routeLength="706.49" waitingTime="40.00" waitingCount="2" stopTime="0.00" timeLoss="55.13" rerouteNo="1" devices="tripinfo_carIn129809:1 routing_carIn129809:1" vType="default_015" speedFactor="1.03" vaporized=""/>
    <tripinfo id="carIn126378:1" depart="57746.00" departLane="386687232#0_1" departPos="5.10" departSpeed="0.00" departDelay="1.80" arrival="57843.00" arrivalLane="-315358244_2" arrivalPos="33.95" arrivalSpeed="14.02" duration="97.00" routeLength="1157.39" waitingTime="2.00" waitingCount="1" stopTime="0.00" timeLoss="19.48" rerouteNo="1" devices="tripinfo_carIn126378:1 routing_carIn126378:1" vType="default_016" speedFactor="1.09" vaporized=""/>
    <tripinfo id="carIn73855:1" depart="57743.00" departLane="386687232#0_1" departPos="5.10" departSpeed="0.00" departDelay="0.50" arrival="57845.00" arrivalLane="-315358244_1" arrivalPos="33.95" arrivalSpeed="15.42" duration="102.00" routeLength="1157.39" waitingTime="7.00" waitingCount="1" stopTime="0.00" timeLoss="26.57" rerouteNo="1" devices="tripinfo_carIn73855:1 routing_carIn73855:1" vType="default_016" speedFactor="1.13" vaporized=""/>
    <tripinfo id="randUni15030:1" depart="57735.00" departLane="386687232#0_1" departPos="5.10" departSpeed="0.00" departDelay="0.10" arrival="57848.00" arrivalLane="26677539_1" arrivalPos="151.98" arrivalSpeed="7.21" duration="113.00" routeLength="919.89" waitingTime="5.00" waitingCount="1" stopTime="0.00" timeLoss="19.51" rerouteNo="1" devices="tripinfo_randUni15030:1 routing_randUni15030:1" vType="random_016" speedFactor="0.89" vaporized=""/>
    <tripinfo id="h17549c1:1" depart="57680.00" departLane="-447569998#1_1" departPos="5.10" departSpeed="0.00" departDelay="0.00" arrival="57852.00" arrivalLane="-315358254#1_1" arrivalPos="137.16" arrivalSpeed="14.24" duration="172.00" routeLength="1746.60" waitingTime="17.00" waitingCount="2" stopTime="0.00" timeLoss="41.49" rerouteNo="1" devices="tripinfo_h17549c1:1 routing_h17549c1:1" vType="default_016" speedFactor="1.05" vaporized=""/>
    <tripinfo id="h5938c1:1" depart="57740.00" departLane="-26677542#0_1" departPos="5.10" departSpeed="0.00" departDelay="0.00" arrival="57856.00" arrivalLane="447569997#1_1" arrivalPos="180.93" arrivalSpeed="7.67" duration="116.00" routeLength="1093.64" waitingTime="0.00" waitingCount="0" stopTime="0.00" timeLoss="11.32" rerouteNo="1" devices="tripinfo_h5938c1:1 routing_h5938c1:1" vType="default_016" speedFactor="0.93" vaporized=""/>
    <tripinfo id="h3864c1:3" depart="57678.00" departLane="24693977#1_1" departPos="5.10" departSpeed="0.00" departDelay="0.00" arrival="57860.00" arrivalLane="201956820_1" arrivalPos="48.33" arrivalSpeed="11.54" duration="182.00" routeLength="1574.85" waitingTime="14.00" waitingCount="1" stopTime="0.00" timeLoss="36.30" rerouteNo="1" devices="tripinfo_h3864c1:3 routing_h3864c1:3" vType="default_016" speedFactor="0.88" vaporized=""/>
    <tripinfo id="h17600c1:1" depart="57662.00" departLane="272042143_1" departPos="5.10" departSpeed="0.00" departDelay="0.30" arrival="57861.00" arrivalLane="201238729#3_1" arrivalPos="431.02" arrivalSpeed="13.11" duration="199.00" routeLength="2100.26" waitingTime="27.00" waitingCount="2" stopTime="0.00" timeLoss="50.05" rerouteNo="1" devices="tripinfo_h17600c1:1 routing_h17600c1:1" vType="default_016" speedFactor="1.02" vaporized=""/>
    <tripinfo id="carIn8642:1" depart="57774.00" departLane="-447569998#1_1" departPos="5.10" departSpeed="0.00" departDelay="0.90" arrival="57864.00" arrivalLane="-315358244_1" arrivalPos="33.95" arrivalSpeed="12.87" duration="90.00" routeLength="706.49" waitingTime="14.00" waitingCount="2" stopTime="0.00" timeLoss="29.35" rerouteNo="1" devices="tripinfo_carIn8642:1 routing_carIn8642:1" vType="default_016" speedFactor="1.00" vaporized=""/>
    <tripinfo id="randUni31145:1" depart="57814.00" departLane="10425609#0_1" departPos="5.10" departSpeed="0.00" departDelay="0.30" arrival="57865.00" arrivalLane="201956810_1" arrivalPos="71.65" arrivalSpeed="13.31" duration="51.00" routeLength="255.78" waitingTime="20.00" waitingCount="1" stopTime="0.00" timeLoss="31.07" rerouteNo="1" devices="tripinfo_randUni31145:1 routing_randUni31145:1" vType="random_016" speedFactor="1.01" vaporized=""/>
    <tripinfo id="carIn12858:1" depart="57661.00" departLane="128361109#1_1" departPos="5.10" departSpeed="0.00" departDelay="0.90" arrival="57866.00" arrivalLane="399835085#1_1" arrivalPos="212.23" arrivalSpeed="7.74" duration="205.00" routeLength="1738.12" waitingTime="48.00" waitingCount="4" stopTime="0.00" timeLoss="85.58" rerouteNo="1" devices="tripinfo_carIn12858:1 routing_carIn12858:1" vType="default_016" speedFactor="0.97" vaporized=""/>
    <tripinfo id="randUni2407:1" depart="57820.00" departLane="10425609#0_1" departPos="5.10" departSpeed="0.00" departDelay="0.80" arrival="57868.00" arrivalLane="201956810_1" arrivalPos="71.65" arrivalSpeed="12.10" duration="48.00" routeLength="255.78" waitingTime="15.00" waitingCount="1" stopTime="0.00" timeLoss="26.92" rerouteNo="1" devices="tripinfo_randUni2407:1 routing_randUni2407:1" vType="random_016" speedFactor="0.93" vaporized=""/>
    <tripinfo id="carIn12365:1" depart="57713.00" departLane="315358244_1" departPos="5.10" departSpeed="0.00" departDelay="0.50" arrival="57870.00" arrivalLane="447569997#1_1" arrivalPos="180.93" arrivalSpeed="7.46" duration="157.00" routeLength="718.04" waitingTime="77.00" waitingCount="1" stopTime="0.00" timeLoss="90.05" rerouteNo="1" devices="tripinfo_carIn12365:1 routing_carIn12365:1" vType="default_016" speedFactor="0.92" vaporized=""/>
    <tripinfo id="carIn53503:1" depart="57765.00" departLane="-306240162#1_0" departPos="5.10" departSpeed="0.00" departDelay="4.40" arrival="57874.00" arrivalLane="24634510#6_1" arrivalPos="76.64" arrivalSpeed="13.59" duration="109.00" routeLength="1440.47" waitingTime="0.00" waitingCount="0" stopTime="0.00" timeLoss="14.97" rerouteNo="1" devices="tripinfo_carIn53503:1 routing_carIn53503:1" vType="default_016" speedFactor="1.06" vaporized=""/>
    <tripinfo id="carIn77438:1" depart="57613.00" departLane="124812856#0_1" departPos="5.10" departSpeed="0.00" departDelay="0.10" arrival="57876.00" arrivalLane="-128361102#1_1" arrivalPos="274.68" arrivalSpeed="13.02" duration="263.00" routeLength="2250.49" waitingTime="53.00" waitingCount="5" stopTime="0.00" timeLoss="94.38" rerouteNo="1" devices="tripinfo_carIn77438:1 routing_carIn77438:1" vType="default_016" speedFactor="0.97" vaporized=""/>
    <tripinfo id="carIn118538:1" depart="57683.00" departLane="-447569998#1_1" departPos="5.10" departSpeed="0.00" departDelay="1.00" arrival="57878.00" arrivalLane="399835085#1_1" arrivalPos="212.23" arrivalSpeed="9.06" duration="195.00" routeLength="1904.55" waitingTime="17.00" waitingCount="3" stopTime="0.00" timeLoss="47.69" rerouteNo="1" devices="tripinfo_carIn118538:1 routing_carIn118538:1" vType="default_016" speedFactor="1.10" vaporized=""/>
    <tripinfo id="carIn107084:1" depart="57601.00" departLane="124812856#0_1" departPos="5.10" departSpeed="0.00" departDelay="0.70" arrival="57879.00" arrivalLane="-128361102#1_1" arrivalPos="274.68" arrivalSpeed="13.72" duration="278.00" routeLength="2250.49" waitingTime="60.00" waitingCount="4" stopTime="0.00" timeLoss="111.81" rerouteNo="1" devices="tripinfo_carIn107084:1 routing_carIn107084:1" vType="default_016" speedFactor="0.99" vaporized=""/>
    <tripinfo id="carIn81046:1" depart="57611.00" departLane="124812856#0_1" departPos="5.10" departSpeed="0.00" departDelay="2.50" arrival="57880.00" arrivalLane="-128361102#1_1" arrivalPos="274.68" arrivalSpeed="13.58" duration="269.00" routeLength="2250.49" waitingTime="59.00" waitingCount="4" stopTime="0.00" timeLoss="107.94" rerouteNo="1" devices="tripinfo_carIn81046:1 routing_carIn81046:1" vType="default_016" speedFactor="1.02" vaporized=""/>
    <tripinfo id="h3536c1:1" depart="57767.00" departLane="-24634413#2_1" departPos="5.10" departSpeed="0.00" departDelay="0.00" arrival="57881.00" arrivalLane="32978638#0_1" arrivalPos="49.29" arrivalSpeed="11.77" duration="114.00" routeLength="953.61" waitingTime="0.00" waitingCount="0" stopTime="0.00" timeLoss="14.45" rerouteNo="1" devices="tripinfo_h3536c1:1 routing_h3536c1:1" vType="default_016" speedFactor="0.92" vaporized=""/>
    <tripinfo id="carIn44740:1" depart="57657.00" departLane="124812856#0_1" departPos="5.10" departSpeed="0.00" departDelay="24.70" arrival="57882.00" arrivalLane="-128361102#1_1" arrivalPos="274.68" arrivalSpeed="13.32" duration="225.00" routeLength="2250.49" waitingTime="26.00" waitingCount="2" stopTime="0.00" timeLoss="69.15" rerouteNo="1" devices="tripinfo_carIn44740:1 routing_carIn44740:1" vType="default_016" speedFactor="1.05" vaporized=""/>
    <tripinfo id="carIn81860:1" depart="57712.00" departLane="128361102#0_1" departPos="5.10" departSpeed="0.00" departDelay="0.60" arrival="57882.00" arrivalLane="-24634517#17_1" arrivalPos="6.43" arrivalSpeed="7.26" duration="170.00" routeLength="1229.64" waitingTime="36.00" waitingCount="3" stopTime="0.00" timeLoss="74.47" rerouteNo="1" devices="tripinfo_carIn81860:1 routing_carIn81860:1" vType="default_016" speedFactor="0.94" vaporized=""/>
    <tripinfo id="carIn75660:1" depart="57679.00" departLane="128361109#1_1" departPos="5.10" departSpeed="0.00" departDelay="3.40" arrival="57893.00" arrivalLane="386687235_2" arrivalPos="80.84" arrivalSpeed="13.65" duration="214.00" routeLength="2088.57" waitingTime="51.00" waitingCount="2" stopTime="0.00" timeLoss="71.80" rerouteNo="1" devices="tripinfo_carIn75660:1 routing_carIn75660:1" vType="default_016" speedFactor="1.06" vaporized=""/>
    <tripinfo id="carIn85747:1" depart="57673.00" departLane="128361109#1_1" departPos="5.10" departSpeed="0.00" departDelay="0.70" arrival="57894.00" arrivalLane="386687235_1" arrivalPos="80.84" arrivalSpeed="14.58" duration="221.00" routeLength="2088.57" waitingTime="55.00" waitingCount="3" stopTime="0.00" timeLoss="81.91" rerouteNo="1" devices="tripinfo_carIn85747:1 routing_carIn85747:1" vType="default_016" speedFactor="1.08" vaporized=""/>
    <tripinfo id="h8343c1:5" depart="57679.00" departLane="315358254#0_1" departPos="5.10" departSpeed="0.00" departDelay="0.60" arrival="57894.00" arrivalLane="-24634510#5_1" arrivalPos="236.88" arrivalSpeed="12.85" duration="215.00" routeLength="2056.84" waitingTime="49.00" waitingCount="2" stopTime="0.00" timeLoss="85.90" rerouteNo="1" devices="tripinfo_h8343c1:5 routing_h8343c1:5" vType="default_016" speedFactor="0.98" vaporized=""/>
    <tripinfo id="carIn462:1" depart="57622.00" departLane="-306240162#1_0" departPos="5.10" departSpeed="0.00" departDelay="4.80" arrival="57895.00" arrivalLane="386687235_2" arrivalPos="80.84" arrivalSpeed="13.56" duration="273.00" routeLength="2257.41" waitingTime="78.00" waitingCount="3" stopTime="0.00" timeLoss="130.84" rerouteNo="1" devices="tripinfo_carIn462:1 routing_carIn462:1" vType="default_016" speedFactor="1.05" vaporized=""/>
    <tripinfo id="carIn24709:1" depart="57753.00" departLane="266565295#5_1" departPos="5.10" departSpeed="0.00" departDelay="2.50" arrival="57895.00" arrivalLane="-24634506#2_1" arrivalPos="71.32" arrivalSpeed="12.32" duration="142.00" routeLength="1534.27" waitingTime="0.00" waitingCount="0" stopTime="0.00" timeLoss="23.02" rerouteNo="1" devices="tripinfo_carIn24709:1 routing_carIn24709:1" vType="default_016" speedFactor="0.96" vaporized=""/>
    <tripinfo id="carIn48184:1" depart="57613.00" departLane="-306240162#1_0" departPos="5.10" departSpeed="0.00" departDelay="0.70" arrival="57896.00" arrivalLane="386687235_1" arrivalPos="80.84" arrivalSpeed="14.31" duration="283.00" routeLength="2257.41" waitingTime="98.00" waitingCount="4" stopTime="0.00" timeLoss="144.58" rerouteNo="1" devices="tripinfo_carIn48184:1 routing_carIn48184:1" vType="default_016" speedFactor="1.08" vaporized=""/>
    <tripinfo id="carIn38625:1" depart="57637.00" departLane="124812856#0_1" departPos="5.10" departSpeed="0.00" departDelay="11.50" arrival="57896.00" arrivalLane="306240162#0_0" arrivalPos="220.43" arrivalSpeed="18.73" duration="259.00" routeLength="3031.29" waitingTime="23.00" waitingCount="3" stopTime="0.00" timeLoss="94.89" rerouteNo="1" devices="tripinfo_carIn38625:1 routing_carIn38625:1" vType="default_016" speedFactor="1.19" vaporized=""/>
    <tripinfo id="carIn99233:1" depart="57691.00" departLane="128361109#1_1" departPos="5.10" departSpeed="0.00" departDelay="1.90" arrival="57898.00" arrivalLane="386687235_2" arrivalPos="80.84" arrivalSpeed="12.82" duration="207.00" routeLength="2088.57" waitingTime="22.00" waitingCount="1" stopTime="0.00" timeLoss="51.14" rerouteNo="1" devices="tripinfo_carIn99233:1 routing_carIn99233:1" vType="default_016" speedFactor="0.97" vaporized=""/>
    <tripinfo id="carIn21399:1" depart="57771.00" departLane="128361109#1_1" departPos="5.10" departSpeed="0.00" departDelay="3.30" arrival="57898.00" arrivalLane="-315358254#1_1" arrivalPos="137.16" arrivalSpeed="12.55" duration="127.00" routeLength="1587.97" waitingTime="13.00" waitingCount="1" stopTime="0.00" timeLoss="36.14" rerouteNo="1" devices="tripinfo_carIn21399:1 routing_carIn21399:1" vType="default_016" speedFactor="0.99" vaporized=""/>
    <tripinfo id="carIn82220:1" depart="57619.00" departLane="-306240162#1_0" departPos="5.10" departSpeed="0.00" departDelay="3.50" arrival="57899.00" arrivalLane="386687235_1" arrivalPos="80.84" arrivalSpeed="12.00" duration="280.00" routeLength="2257.41" waitingTime="80.00" waitingCount="3" stopTime="0.00" timeLoss="121.57" rerouteNo="1" devices="tripinfo_carIn82220:1 routing_carIn82220:1" vType="default_016" speedFactor="0.94" vaporized=""/>
    <tripinfo id="randUni23028:1" depart="57884.00" departLane="124812856#0_1" departPos="5.10" departSpeed="0.00" departDelay="0.10" arrival="57899.00" arrivalLane="201956810_1" arrivalPos="71.65" arrivalSpeed="12.98" duration="15.00" routeLength="134.91" waitingTime="0.00" waitingCount="0" stopTime="0.00" timeLoss="4.22" rerouteNo="1" devices="tripinfo_randUni23028:1 routing_randUni23028:1" vType="random_016" speedFactor="0.98" vaporized=""/>
    <tripinfo id="h5170c2:1" depart="57631.00" departLane="201201953#4_1" departPos="5.10" departSpeed="0.00" departDelay="0.00" arrival="57900.00" arrivalLane="-266565295#5_1" arrivalPos="172.76" arrivalSpeed="14.17" duration="269.00" routeLength="3097.92" waitingTime="14.00" waitingCount="2" stopTime="0.00" timeLoss="45.94" rerouteNo="1" devices="tripinfo_h5170c2:1 routing_h5170c2:1" vType="default_016" speedFactor="1.03" vaporized=""/>
    <tripinfo id="carIn88932:1" depart="57647.00" departLane="124812856#0_1" departPos="5.10" departSpeed="0.00" departDelay="16.40" arrival="57910.00" arrivalLane="-128361102#1_1" arrivalPos="274.68" arrivalSpeed="11.08" duration="263.00" routeLength="2250.49" waitingTime="34.00" waitingCount="5" stopTime="0.00" timeLoss="76.60" rerouteNo="1" devices="tripinfo_carIn88932:1 routing_carIn88932:1" vType="default_016" speedFactor="0.88" vaporized=""/>
    <tripinfo id="carIn12775:1" depart="57676.00" departLane="10425609#0_1" departPos="5.10" departSpeed="0.00" departDelay="0.60" arrival="57910.00" arrivalLane="18809673#0_1" arrivalPos="473.56" arrivalSpeed="11.39" duration="234.00" routeLength="1959.45" waitingTime="38.00" waitingCount="2" stopTime="0.00" timeLoss="60.60" rerouteNo="1" devices="tripinfo_carIn12775:1 routing_carIn12775:1" vType="default_016" speedFactor="0.84" vaporized=""/>
    <tripinfo id="h17890c1:3" depart="57792.00" departLane="386687232#0_1" departPos="5.10" departSpeed="0.00" departDelay="0.00" arrival="57910.00" arrivalLane="32978638#0_1" arrivalPos="49.29" arrivalSpeed="12.98" duration="118.00" routeLength="792.72" waitingTime="38.00" waitingCount="3" stopTime="0.00" timeLoss="60.31" rerouteNo="1" devices="tripinfo_h17890c1:3 routing_h17890c1:3" vType="default_016" speedFactor="1.02" vaporized=""/>