<?xml version="1.0" encoding="UTF-8"?>

<!-- generated on 12/21/21 11:25:04 by Eclipse SUMO sumo Version 1.7.0
<configuration xmlns:xsi="http://www.w3.org/2001/XMLSchema-instance" xsi:noNamespaceSchemaLocation="http://sumo.dlr.de/xsd/sumoConfiguration.xsd">

    <input>
        <net-file value="C:\Users\longs\Desktop\RESCO-main\environments/ingolstadt21/ingolstadt21.net.xml"/>
        <route-files value="C:\Users\longs\Desktop\RESCO-main\environments/ingolstadt21/ingolstadt21.rou.xml"/>
    </input>

    <output>
        <tripinfo-output value="C:\Users\longs\Desktop\RESCO-main\logs\IDQN-tr1-ingolstadt21-21-drqlong-delaydiff_pressure0\tripinfo_2.xml"/>
        <tripinfo-output.write-unfinished value="true"/>
    </output>

    <time>
        <begin value="57600"/>
        <end value="61200"/>
    </time>

    <processing>
        <time-to-teleport value="-1"/>
    </processing>

    <report>
        <no-warnings value="true"/>
        <no-step-log value="true"/>
    </report>

    <traci_server>
        <remote-port value="55910"/>
    </traci_server>

    <random_number>
        <random value="true"/>
    </random_number>

</configuration>
-->

<tripinfos xmlns:xsi="http://www.w3.org/2001/XMLSchema-instance" xsi:noNamespaceSchemaLocation="http://sumo.dlr.de/xsd/tripinfo_file.xsd">
    <tripinfo id="carIn60260:1" depart="57606.00" departLane="315358254#0_1" departPos="5.10" departSpeed="0.00" departDelay="0.90" arrival="57653.00" arrivalLane="399835085#1_1" arrivalPos="212.23" arrivalSpeed="9.28" duration="47.00" routeLength="430.98" waitingTime="0.00" waitingCount="0" stopTime="0.00" timeLoss="5.85" rerouteNo="1" devices="tripinfo_carIn60260:1 routing_carIn60260:1" vType="default_016" speedFactor="1.13" vaporized=""/>
    <tripinfo id="h15454c2:3" depart="57612.00" departLane="24608844_1" departPos="5.10" departSpeed="0.00" departDelay="0.50" arrival="57669.00" arrivalLane="32978638#0_1" arrivalPos="49.29" arrivalSpeed="11.52" duration="57.00" routeLength="354.79" waitingTime="3.00" waitingCount="1" stopTime="0.00" timeLoss="15.94" rerouteNo="1" devices="tripinfo_h15454c2:3 routing_h15454c2:3" vType="default_016" speedFactor="0.84" vaporized=""/>
    <tripinfo id="carIn53971:1" depart="57640.00" departLane="272042143_1" departPos="5.10" departSpeed="0.00" departDelay="0.80" arrival="57697.00" arrivalLane="24634414#1_1" arrivalPos="162.19" arrivalSpeed="7.60" duration="57.00" routeLength="493.04" waitingTime="0.00" waitingCount="0" stopTime="0.00" timeLoss="8.21" rerouteNo="1" devices="tripinfo_carIn53971:1 routing_carIn53971:1" vType="default_016" speedFactor="0.94" vaporized=""/>
    <tripinfo id="carIn80064:1" depart="57603.00" departLane="128361109#1_1" departPos="5.10" departSpeed="0.00" departDelay="0.40" arrival="57708.00" arrivalLane="-315358254#1_1" arrivalPos="137.16" arrivalSpeed="15.24" duration="105.00" routeLength="1587.97" waitingTime="3.00" waitingCount="1" stopTime="0.00" timeLoss="29.84" rerouteNo="1" devices="tripinfo_carIn80064:1 routing_carIn80064:1" vType="default_016" speedFactor="1.19" vaporized=""/>
    <tripinfo id="h7181c1:1" depart="57660.00" departLane="315358254#0_1" departPos="5.10" departSpeed="0.00" departDelay="0.10" arrival="57720.00" arrivalLane="306240162#0_0" arrivalPos="220.43" arrivalSpeed="16.12" duration="60.00" routeLength="932.35" waitingTime="0.00" waitingCount="0" stopTime="0.00" timeLoss="8.90" rerouteNo="1" devices="tripinfo_h7181c1:1 routing_h7181c1:1" vType="default_016" speedFactor="1.02" vaporized=""/>
    <tripinfo id="h7800c1:5" depart="57696.00" departLane="-447569998#1_1" departPos="5.10" departSpeed="0.00" departDelay="0.00" arrival="57723.00" arrivalLane="-447569998#1_1" arrivalPos="180.76" arrivalSpeed="6.99" duration="27.00" routeLength="175.66" waitingTime="0.00" waitingCount="0" stopTime="0.00" timeLoss="3.55" rerouteNo="1" devices="tripinfo_h7800c1:5 routing_h7800c1:5" vType="default_016" speedFactor="0.91" vaporized=""/>
    <tripinfo id="h3688c1:1" depart="57625.00" departLane="201201950#1_1" departPos="5.10" departSpeed="0.00" departDelay="0.00" arrival="57724.00" arrivalLane="32978638#0_1" arrivalPos="49.29" arrivalSpeed="14.09" duration="99.00" routeLength="1089.75" waitingTime="5.00" waitingCount="2" stopTime="0.00" timeLoss="21.73" rerouteNo="1" devices="tripinfo_h3688c1:1 routing_h3688c1:1" vType="default_016" speedFactor="1.03" vaporized=""/>
    <tripinfo id="h5979c1:5" depart="57669.00" departLane="399835085#1_1" departPos="5.10" departSpeed="0.00" departDelay="0.00" arrival="57751.00" arrivalLane="-315358254#1_1" arrivalPos="137.16" arrivalSpeed="14.51" duration="82.00" routeLength="659.33" waitingTime="0.00" waitingCount="0" stopTime="0.00" timeLoss="17.44" rerouteNo="1" devices="tripinfo_h5979c1:5 routing_h5979c1:5" vType="default_016" speedFactor="1.14" vaporized=""/>
    <tripinfo id="h12244c1:3" depart="57612.00" departLane="315358244_1" departPos="5.10" departSpeed="0.00" departDelay="0.40" arrival="57754.00" arrivalLane="386687235_1" arrivalPos="80.84" arrivalSpeed="12.85" duration="142.00" routeLength="1186.14" waitingTime="39.00" waitingCount="1" stopTime="0.00" timeLoss="53.33" rerouteNo="1" devices="tripinfo_h12244c1:3 routing_h12244c1:3" vType="default_016" speedFactor="0.98" vaporized=""/>
    <tripinfo id="h317c2:1" depart="57707.00" departLane="-32978638#0_1" departPos="5.10" departSpeed="0.00" departDelay="0.10" arrival="57754.00" arrivalLane="-266565295#5_1" arrivalPos="172.76" arrivalSpeed="13.59" duration="47.00" routeLength="370.53" waitingTime="12.00" waitingCount="1" stopTime="0.00" timeLoss="20.74" rerouteNo="1" devices="tripinfo_h317c2:1 routing_h317c2:1" vType="default_016" speedFactor="1.04" vaporized=""/>
    <tripinfo id="carIn121703:1" depart="57647.00" departLane="386687232#0_1" departPos="5.10" departSpeed="0.00" departDelay="0.30" arrival="57764.00" arrivalLane="-315358244_1" arrivalPos="33.95" arrivalSpeed="11.94" duration="117.00" routeLength="1157.39" waitingTime="4.00" waitingCount="1" stopTime="0.00" timeLoss="21.83" rerouteNo="1" devices="tripinfo_carIn121703:1 routing_carIn121703:1" vType="default_016" speedFactor="0.89" vaporized=""/>
    <tripinfo id="h3154c1:1" depart="57658.00" departLane="24634507_1" departPos="5.10" departSpeed="0.00" departDelay="0.00" arrival="57764.00" arrivalLane="-266565295#5_1" arrivalPos="172.76" arrivalSpeed="15.46" duration="106.00" routeLength="1206.22" waitingTime="7.00" waitingCount="2" stopTime="0.00" timeLoss="32.17" rerouteNo="1" devices="tripinfo_h3154c1:1 routing_h3154c1:1" vType="default_016" speedFactor="1.20" vaporized=""/>
    <tripinfo id="h3568c1:3" depart="57656.00" departLane="266565295#5_1" departPos="5.10" departSpeed="0.00" departDelay="0.80" arrival="57766.00" arrivalLane="-24634415_1" arrivalPos="62.03" arrivalSpeed="13.42" duration="110.00" routeLength="807.40" waitingTime="27.00" waitingCount="1" stopTime="0.00" timeLoss="44.69" rerouteNo="1" devices="tripinfo_h3568c1:3 routing_h3568c1:3" vType="default_016" speedFactor="0.98" vaporized=""/>
    <tripinfo id="carIn30817:1" depart="57681.00" departLane="315358244_1" departPos="5.10" departSpeed="0.00" departDelay="0.20" arrival="57770.00" arrivalLane="447569997#1_1" arrivalPos="180.93" arrivalSpeed="8.13" duration="89.00" routeLength="718.04" waitingTime="20.00" waitingCount="1" stopTime="0.00" timeLoss="33.47" rerouteNo="1" devices="tripinfo_carIn30817:1 routing_carIn30817:1" vType="default_016" speedFactor="1.12" vaporized=""/>
    <tripinfo id="carIn27009:1" depart="57673.00" departLane="-447569998#1_1" departPos="5.10" departSpeed="0.00" departDelay="0.50" arrival="57771.00" arrivalLane="-26677539_1" arrivalPos="152.75" arrivalSpeed="7.80" duration="98.00" routeLength="699.63" waitingTime="3.00" waitingCount="1" stopTime="0.00" timeLoss="19.86" rerouteNo="1" devices="tripinfo_carIn27009:1 routing_carIn27009:1" vType="default_015" speedFactor="1.08" vaporized=""/>
    <tripinfo id="h9563c2:5" depart="57631.00" departLane="315358244_1" departPos="5.10" departSpeed="0.00" departDelay="0.70" arrival="57778.00" arrivalLane="386687235_1" arrivalPos="80.84" arrivalSpeed="11.63" duration="147.00" routeLength="1186.14" waitingTime="29.00" waitingCount="3" stopTime="0.00" timeLoss="53.63" rerouteNo="1" devices="tripinfo_h9563c2:5 routing_h9563c2:5" vType="default_016" speedFactor="0.93" vaporized=""/>
    <tripinfo id="S5R_frequency1.2" depart="57667.00" departLane="315358250#0_1" departPos="12.10" departSpeed="0.00" departDelay="55.40" arrival="57785.00" arrivalLane="386687235_1" arrivalPos="80.84" arrivalSpeed="13.74" duration="118.00" routeLength="1115.62" waitingTime="11.00" waitingCount="1" stopTime="0.00" timeLoss="36.06" rerouteNo="1" devices="tripinfo_S5R_frequency1.2 routing_S5R_frequency1.2" vType="bus" speedFactor="1.00" vaporized=""/>
    <tripinfo id="carIn22761:1" depart="57616.00" departLane="-306240162#1_0" departPos="5.10" departSpeed="0.00" departDelay="2.10" arrival="57786.00" arrivalLane="399835085#1_1" arrivalPos="212.23" arrivalSpeed="6.11" duration="170.00" routeLength="1093.26" waitingTime="74.00" waitingCount="1" stopTime="0.00" timeLoss="100.27" rerouteNo="1" devices="tripinfo_carIn22761:1 routing_carIn22761:1" vType="default_016" speedFactor="1.12" vaporized=""/>
    <tripinfo id="h3326c1:2" depart="57656.00" departLane="22716069#0_1" departPos="5.10" departSpeed="0.00" departDelay="0.00" arrival="57786.00" arrivalLane="24634517#13_1" arrivalPos="111.62" arrivalSpeed="10.87" duration="130.00" routeLength="1312.81" waitingTime="0.00" waitingCount="0" stopTime="0.00" timeLoss="16.77" rerouteNo="1" devices="tripinfo_h3326c1:2 routing_h3326c1:2" vType="default_016" speedFactor="0.86" vaporized=""/>
    <tripinfo id="carIn129809:1" depart="57729.00" departLane="-447569998#1_1" departPos="5.10" departSpeed="0.00" departDelay="1.00" arrival="57796.00" arrivalLane="-315358244_1" arrivalPos="33.95" arrivalSpeed="14.30" duration="67.00" routeLength="706.49" waitingTime="0.00" waitingCount="0" stopTime="0.00" timeLoss="8.27" rerouteNo="1" devices="tripinfo_carIn129809:1 routing_carIn129809:1" vType="default_015" speedFactor="1.04" vaporized=""/>
    <tripinfo id="h11737c1:1" depart="57665.00" departLane="272042143_1" departPos="5.10" departSpeed="0.00" departDelay="1.50" arrival="57797.00" arrivalLane="-315358254#1_1" arrivalPos="137.16" arrivalSpeed="14.33" duration="132.00" routeLength="1596.88" waitingTime="4.00" waitingCount="1" stopTime="0.00" timeLoss="21.55" rerouteNo="1" devices="tripinfo_h11737c1:1 routing_h11737c1:1" vType="default_016" speedFactor="1.06" vaporized=""/>
    <tripinfo id="h4538c1:1" depart="57701.00" departLane="-10427692#1_1" departPos="5.10" departSpeed="0.00" departDelay="0.00" arrival="57797.00" arrivalLane="-128361102#1_1" arrivalPos="274.68" arrivalSpeed="13.00" duration="96.00" routeLength="440.74" waitingTime="54.00" waitingCount="1" stopTime="0.00" timeLoss="63.40" rerouteNo="1" devices="tripinfo_h4538c1:1 routing_h4538c1:1" vType="default_016" speedFactor="0.98" vaporized=""/>
    <tripinfo id="h330c1:1" depart="57736.00" departLane="-32978638#0_1" departPos="5.10" departSpeed="0.00" departDelay="0.20" arrival="57797.00" arrivalLane="-266565295#5_1" arrivalPos="172.76" arrivalSpeed="12.51" duration="61.00" routeLength="370.53" waitingTime="21.00" waitingCount="1" stopTime="0.00" timeLoss="30.13" rerouteNo="1" devices="tripinfo_h330c1:1 routing_h330c1:1" vType="default_016" speedFactor="0.90" vaporized=""/>
    <tripinfo id="carIn12365:1" depart="57713.00" departLane="315358244_1" departPos="5.10" departSpeed="0.00" departDelay="0.50" arrival="57802.00" arrivalLane="447569997#1_1" arrivalPos="180.93" arrivalSpeed="7.64" duration="89.00" routeLength="718.04" waitingTime="15.00" waitingCount="1" stopTime="0.00" timeLoss="25.90" rerouteNo="1" devices="tripinfo_carIn12365:1 routing_carIn12365:1" vType="default_016" speedFactor="0.98" vaporized=""/>
    <tripinfo id="carIn107282:1" depart="57749.00" departLane="-447569998#1_1" departPos="5.10" departSpeed="0.00" departDelay="0.00" arrival="57808.00" arrivalLane="315358242#0_1" arrivalPos="165.37" arrivalSpeed="12.47" duration="59.00" routeLength="448.50" waitingTime="4.00" waitingCount="1" stopTime="0.00" timeLoss="12.31" rerouteNo="1" devices="tripinfo_carIn107282:1 routing_carIn107282:1" vType="default_016" speedFactor="0.91" vaporized=""/>
    <tripinfo id="carIn12858:1" depart="57661.00" departLane="128361109#1_1" departPos="5.10" departSpeed="0.00" departDelay="0.90" arrival="57809.00" arrivalLane="399835085#1_1" arrivalPos="212.23" arrivalSpeed="8.21" duration="148.00" routeLength="1738.12" waitingTime="8.00" waitingCount="3" stopTime="0.00" timeLoss="46.26" rerouteNo="1" devices="tripinfo_carIn12858:1 routing_carIn12858:1" vType="default_016" speedFactor="1.13" vaporized=""/>
    <tripinfo id="carIn50326:1" depart="57651.00" departLane="128361102#0_1" departPos="5.10" departSpeed="0.00" departDelay="0.30" arrival="57812.00" arrivalLane="18809673#0_1" arrivalPos="473.56" arrivalSpeed="15.14" duration="161.00" routeLength="1591.07" waitingTime="30.00" waitingCount="1" stopTime="0.00" timeLoss="49.61" rerouteNo="1" devices="tripinfo_carIn50326:1 routing_carIn50326:1" vType="default_016" speedFactor="1.16" vaporized=""/>
    <tripinfo id="h17549c1:1" depart="57680.00" departLane="-447569998#1_1" departPos="5.10" departSpeed="0.00" departDelay="0.00" arrival="57826.00" arrivalLane="-315358254#1_1" arrivalPos="137.16" arrivalSpeed="15.55" duration="146.00" routeLength="1743.98" waitingTime="7.00" waitingCount="1" stopTime="0.00" timeLoss="24.97" rerouteNo="1" devices="tripinfo_h17549c1:1 routing_h17549c1:1" vType="default_016" speedFactor="1.13" vaporized=""/>
    <tripinfo id="randUni15030:1" depart="57735.00" departLane="386687232#0_1" departPos="5.10" departSpeed="0.00" departDelay="0.10" arrival="57826.00" arrivalLane="26677539_1" arrivalPos="151.98" arrivalSpeed="9.53" duration="91.00" routeLength="919.89" waitingTime="5.00" waitingCount="1" stopTime="0.00" timeLoss="20.34" rerouteNo="1" devices="tripinfo_randUni15030:1 routing_randUni15030:1" vType="random_016" speedFactor="1.18" vaporized=""/>
    <tripinfo id="carIn48184:1" depart="57613.00" departLane="-306240162#1_0" departPos="5.10" departSpeed="0.00" departDelay="0.70" arrival="57843.00" arrivalLane="386687235_1" arrivalPos="80.84" arrivalSpeed="14.14" duration="230.00" routeLength="2257.41" waitingTime="54.00" waitingCount="3" stopTime="0.00" timeLoss="85.79" rerouteNo="1" devices="tripinfo_carIn48184:1 routing_carIn48184:1" vType="default_016" speedFactor="1.03" vaporized=""/>
    <tripinfo id="carIn82220:1" depart="57619.00" departLane="-306240162#1_0" departPos="5.10" departSpeed="0.00" departDelay="3.50" arrival="57843.00" arrivalLane="386687235_2" arrivalPos="80.84" arrivalSpeed="13.97" duration="224.00" routeLength="2257.41" waitingTime="50.00" waitingCount="3" stopTime="0.00" timeLoss="86.21" rerouteNo="1" devices="tripinfo_carIn82220:1 routing_carIn82220:1" vType="default_016" speedFactor="1.08" vaporized=""/>
    <tripinfo id="h645c1:1" depart="57622.00" departLane="266565295#5_1" departPos="5.10" departSpeed="0.00" departDelay="0.40" arrival="57844.00" arrivalLane="-315358244_1" arrivalPos="33.95" arrivalSpeed="12.65" duration="222.00" routeLength="1910.83" waitingTime="41.00" waitingCount="3" stopTime="0.00" timeLoss="70.99" rerouteNo="1" devices="tripinfo_h645c1:1 routing_h645c1:1" vType="default_016" speedFactor="0.92" vaporized=""/>
    <tripinfo id="carIn73855:1" depart="57743.00" departLane="386687232#0_1" departPos="5.10" departSpeed="0.00" departDelay="0.50" arrival="57844.00" arrivalLane="-315358244_2" arrivalPos="33.95" arrivalSpeed="14.40" duration="101.00" routeLength="1157.39" waitingTime="2.00" waitingCount="1" stopTime="0.00" timeLoss="19.58" rerouteNo="1" devices="tripinfo_carIn73855:1 routing_carIn73855:1" vType="default_016" speedFactor="1.05" vaporized=""/>
    <tripinfo id="carIn462:1" depart="57622.00" departLane="-306240162#1_0" departPos="5.10" departSpeed="0.00" departDelay="4.80" arrival="57845.00" arrivalLane="386687235_1" arrivalPos="80.84" arrivalSpeed="14.59" duration="223.00" routeLength="2257.41" waitingTime="48.00" waitingCount="3" stopTime="0.00" timeLoss="86.56" rerouteNo="1" devices="tripinfo_carIn462:1 routing_carIn462:1" vType="default_016" speedFactor="1.09" vaporized=""/>
    <tripinfo id="carIn82278:1" depart="57702.00" departLane="-306240162#1_0" departPos="5.10" departSpeed="0.00" departDelay="0.70" arrival="57845.00" arrivalLane="399835085#1_1" arrivalPos="212.23" arrivalSpeed="6.68" duration="143.00" routeLength="1093.26" waitingTime="40.00" waitingCount="2" stopTime="0.00" timeLoss="65.11" rerouteNo="1" devices="tripinfo_carIn82278:1 routing_carIn82278:1" vType="default_016" speedFactor="0.99" vaporized=""/>
    <tripinfo id="h6541c1:3" depart="57727.00" departLane="201950247#3_1" departPos="5.10" departSpeed="0.00" departDelay="0.00" arrival="57845.00" arrivalLane="32978638#0_1" arrivalPos="49.29" arrivalSpeed="13.16" duration="118.00" routeLength="1176.17" waitingTime="1.00" waitingCount="1" stopTime="0.00" timeLoss="14.04" rerouteNo="1" devices="tripinfo_h6541c1:3 routing_h6541c1:3" vType="default_016" speedFactor="0.99" vaporized=""/>
    <tripinfo id="carIn8642:1" depart="57774.00" departLane="-447569998#1_1" departPos="5.10" departSpeed="0.00" departDelay="0.90" arrival="57845.00" arrivalLane="-315358244_1" arrivalPos="33.95" arrivalSpeed="13.93" duration="71.00" routeLength="706.49" waitingTime="2.00" waitingCount="1" stopTime="0.00" timeLoss="11.84" rerouteNo="1" devices="tripinfo_carIn8642:1 routing_carIn8642:1" vType="default_016" speedFactor="1.02" vaporized=""/>
    <tripinfo id="carIn126378:1" depart="57746.00" departLane="386687232#0_1" departPos="5.10" departSpeed="0.00" departDelay="1.80" arrival="57846.00" arrivalLane="-315358244_2" arrivalPos="33.95" arrivalSpeed="13.90" duration="100.00" routeLength="1157.39" waitingTime="1.00" waitingCount="1" stopTime="0.00" timeLoss="19.10" rerouteNo="1" devices="tripinfo_carIn126378:1 routing_carIn126378:1" vType="default_016" speedFactor="1.05" vaporized=""/>
    <tripinfo id="carIn116184:1" depart="57627.00" departLane="-306240162#1_0" departPos="5.10" departSpeed="0.00" departDelay="0.10" arrival="57847.00" arrivalLane="386687235_1" arrivalPos="80.84" arrivalSpeed="14.44" duration="220.00" routeLength="2257.41" waitingTime="30.00" waitingCount="3" stopTime="0.00" timeLoss="77.93" rerouteNo="1" devices="tripinfo_carIn116184:1 routing_carIn116184:1" vType="default_016" speedFactor="1.05" vaporized=""/>
    <tripinfo id="50R_frequency3.17" depart="57674.00" departLane="-18809673#6_1" departPos="12.10" departSpeed="0.00" departDelay="0.70" arrival="57849.00" arrivalLane="201956811#0_1" arrivalPos="40.40" arrivalSpeed="13.54" duration="175.00" routeLength="1954.47" waitingTime="4.00" waitingCount="1" stopTime="0.00" timeLoss="29.76" rerouteNo="1" devices="tripinfo_50R_frequency3.17 routing_50R_frequency3.17" vType="bus" speedFactor="1.00" vaporized=""/>
    <tripinfo id="carIn31257:1" depart="57630.00" departLane="-306240162#1_0" departPos="5.10" departSpeed="0.00" departDelay="1.60" arrival="57853.00" arrivalLane="386687235_1" arrivalPos="80.84" arrivalSpeed="12.50" duration="223.00" routeLength="2257.41" waitingTime="28.00" waitingCount="3" stopTime="0.00" timeLoss="66.58" rerouteNo="1" devices="tripinfo_carIn31257:1 routing_carIn31257:1" vType="default_016" speedFactor="0.95" vaporized=""/>
    <tripinfo id="h5216c1:1" depart="57665.00" departLane="224892339#0_1" departPos="5.10" departSpeed="0.00" departDelay="1.00" arrival="57855.00" arrivalLane="386687235_2" arrivalPos="80.84" arrivalSpeed="13.84" duration="190.00" routeLength="1823.78" waitingTime="12.00" waitingCount="1" stopTime="0.00" timeLoss="62.25" rerouteNo="1" devices="tripinfo_h5216c1:1 routing_h5216c1:1" vType="default_016" speedFactor="1.00" vaporized=""/>
    <tripinfo id="h16072c2:3" depart="57663.00" departLane="315358254#0_1" departPos="5.10" departSpeed="0.00" departDelay="2.50" arrival="57856.00" arrivalLane="386687235_1" arrivalPos="80.84" arrivalSpeed="10.48" duration="193.00" routeLength="1611.92" waitingTime="23.00" waitingCount="2" stopTime="0.00" timeLoss="46.19" rerouteNo="1" devices="tripinfo_h16072c2:3 routing_h16072c2:3" vType="default_016" speedFactor="0.80" vaporized=""/>
    <tripinfo id="h11868c1:5" depart="57700.00" departLane="315358254#0_1" departPos="5.10" departSpeed="0.00" departDelay="0.10" arrival="57857.00" arrivalLane="386687235_2" arrivalPos="80.84" arrivalSpeed="13.84" duration="157.00" routeLength="1611.92" waitingTime="12.00" waitingCount="1" stopTime="0.00" timeLoss="40.60" rerouteNo="1" devices="tripinfo_h11868c1:5 routing_h11868c1:5" vType="default_016" speedFactor="1.01" vaporized=""/>
    <tripinfo id="carIn12775:1" depart="57676.00" departLane="10425609#0_1" departPos="5.10" departSpeed="0.00" departDelay="0.60" arrival="57862.00" arrivalLane="18809673#0_1" arrivalPos="473.56" arrivalSpeed="13.82" duration="186.00" routeLength="1959.45" waitingTime="17.00" waitingCount="1" stopTime="0.00" timeLoss="40.93" rerouteNo="1" devices="tripinfo_carIn12775:1 routing_carIn12775:1" vType="default_016" speedFactor="1.01" vaporized=""/>
    <tripinfo id="h5938c1:1" depart="57740.00" departLane="-26677542#0_1" departPos="5.10" departSpeed="0.00" departDelay="0.00" arrival="57867.00" arrivalLane="447569997#1_1" arrivalPos="180.93" arrivalSpeed="7.05" duration="127.00" routeLength="1093.64" waitingTime="11.00" waitingCount="1" stopTime="0.00" timeLoss="25.04" rerouteNo="1" devices="tripinfo_h5938c1:1 routing_h5938c1:1" vType="default_016" speedFactor="0.95" vaporized=""/>
    <tripinfo id="h13377c2:3" depart="57808.00" departLane="315358244_1" departPos="5.10" departSpeed="0.00" departDelay="4.60" arrival="57870.00" arrivalLane="447569997#1_1" arrivalPos="180.93" arrivalSpeed="8.19" duration="62.00" routeLength="718.04" waitingTime="0.00" waitingCount="0" stopTime="0.00" timeLoss="7.64" rerouteNo="1" devices="tripinfo_h13377c2:3 routing_h13377c2:3" vType="default_016" speedFactor="1.13" vaporized=""/>
    <tripinfo id="carIn118591:1" depart="57689.00" departLane="315358244_1" departPos="5.10" departSpeed="0.00" departDelay="0.20" arrival="57871.00" arrivalLane="386687235_1" arrivalPos="80.84" arrivalSpeed="13.44" duration="182.00" routeLength="1186.14" waitingTime="64.00" waitingCount="3" stopTime="0.00" timeLoss="93.50" rerouteNo="1" devices="tripinfo_carIn118591:1 routing_carIn118591:1" vType="default_016" speedFactor="0.98" vaporized=""/>
    <tripinfo id="h3536c1:1" depart="57767.00" departLane="-24634413#2_1" departPos="5.10" departSpeed="0.00" departDelay="0.00" arrival="57875.00" arrivalLane="32978638#0_1" arrivalPos="49.29" arrivalSpeed="13.84" duration="108.00" routeLength="953.61" waitingTime="1.00" waitingCount="1" stopTime="0.00" timeLoss="19.24" rerouteNo="1" devices="tripinfo_h3536c1:1 routing_h3536c1:1" vType="default_016" speedFactor="1.03" vaporized=""/>
    <tripinfo id="h17600c1:1" depart="57662.00" departLane="272042143_1" departPos="5.10" departSpeed="0.00" departDelay="0.30" arrival="57883.00" arrivalLane="201238729#3_1" arrivalPos="431.02" arrivalSpeed="12.14" duration="221.00" routeLength="2100.26" waitingTime="44.00" waitingCount="1" stopTime="0.00" timeLoss="62.21" rerouteNo="1" devices="tripinfo_h17600c1:1 routing_h17600c1:1" vType="default_016" speedFactor="0.95" vaporized=""/>
    <tripinfo id="carIn53503:1" depart="57765.00" departLane="-306240162#1_0" departPos="5.10" departSpeed="0.00" departDelay="4.40" arrival="57886.00" arrivalLane="24634510#6_1" arrivalPos="76.64" arrivalSpeed="13.35" duration="121.00" routeLength="1440.47" waitingTime="0.00" waitingCount="0" stopTime="0.00" timeLoss="20.86" rerouteNo="1" devices="tripinfo_carIn53503:1 routing_carIn53503:1" vType="default_016" speedFactor="0.99" vaporized=""/>
    <tripinfo id="h17890c1:3" depart="57792.00" departLane="386687232#0_1" departPos="5.10" departSpeed="0.00" departDelay="0.00" arrival="57892.00" arrivalLane="32978638#0_1" arrivalPos="49.29" arrivalSpeed="13.12" duration="100.00" routeLength="792.72" waitingTime="22.00" waitingCount="2" stopTime="0.00" timeLoss="38.40" rerouteNo="1" devices="tripinfo_h17890c1:3 routing_h17890c1:3" vType="default_016" speedFactor="0.96" vaporized=""/>
    <tripinfo id="h5239c1:3" depart="57834.00" departLane="315358254#0_1" departPos="5.10" departSpeed="0.00" departDelay="0.80" arrival="57892.00" arrivalLane="224892361#3_1" arrivalPos="220.30" arrivalSpeed="23.80" duration="58.00" routeLength="793.34" waitingTime="3.00" waitingCount="1" stopTime="0.00" timeLoss="20.42" rerouteNo="1" devices="tripinfo_h5239c1:3 routing_h5239c1:3" vType="default_016" speedFactor="1.09" vaporized=""/>
    <tripinfo id="h9953c2:3" depart="57682.00" departLane="-54169231#2_1" departPos="5.10" departSpeed="0.00" departDelay="0.00" arrival="57894.00" arrivalLane="386687235_2" arrivalPos="80.84" arrivalSpeed="12.30" duration="212.00" routeLength="1535.60" waitingTime="39.00" waitingCount="3" stopTime="0.00" timeLoss="77.90" rerouteNo="1" devices="tripinfo_h9953c2:3 routing_h9953c2:3" vType="default_016" speedFactor="0.94" vaporized=""/>
    <tripinfo id="carIn101568:1" depart="57638.00" departLane="-306240162#1_0" departPos="5.10" departSpeed="0.00" departDelay="0.50" arrival="57895.00" arrivalLane="386687235_1" arrivalPos="80.84" arrivalSpeed="11.40" duration="257.00" routeLength="2257.41" waitingTime="44.00" waitingCount="2" stopTime="0.00" timeLoss="86.00" rerouteNo="1" devices="tripinfo_carIn101568:1 routing_carIn101568:1" vType="default_016" speedFactor="0.87" vaporized=""/>
    <tripinfo id="carIn75660:1" depart="57679.00" departLane="128361109#1_1" departPos="5.10" departSpeed="0.00" departDelay="3.40" arrival="57896.00" arrivalLane="386687235_1" arrivalPos="80.84" arrivalSpeed="14.19" duration="217.00" routeLength="2088.57" waitingTime="44.00" waitingCount="2" stopTime="0.00" timeLoss="85.40" rerouteNo="1" devices="tripinfo_carIn75660:1 routing_carIn75660:1" vType="default_016" speedFactor="1.14" vaporized=""/>
    <tripinfo id="carIn85747:1" depart="57673.00" departLane="128361109#1_1" departPos="5.10" departSpeed="0.00" departDelay="0.70" arrival="57897.00" arrivalLane="386687235_2" arrivalPos="80.84" arrivalSpeed="10.73" duration="224.00" routeLength="2088.57" waitingTime="17.00" waitingCount="2" stopTime="0.00" timeLoss="38.92" rerouteNo="1" devices="tripinfo_carIn85747:1 routing_carIn85747:1" vType="default_016" speedFactor="0.81" vaporized=""/>
    <tripinfo id="carIn7949:1" depart="57676.00" departLane="128361109#1_1" departPos="5.10" departSpeed="0.00" departDelay="2.10" arrival="57898.00" arrivalLane="386687235_1" arrivalPos="80.84" arrivalSpeed="12.22" duration="222.00" routeLength="2088.57" waitingTime="26.00" waitingCount="2" stopTime="0.00" timeLoss="51.08" rerouteNo="1" devices="tripinfo_carIn7949:1 routing_carIn7949:1" vType="default_016" speedFactor="0.88" vaporized=""/>
    <tripinfo id="carIn107084:1" depart="57601.00" departLane="124812856#0_1" departPos="5.10" departSpeed="0.00" departDelay="0.70" arrival="57899.00" arrivalLane="-128361102#1_1" arrivalPos="274.68" arrivalSpeed="11.80" duration="298.00" routeLength="2250.49" waitingTime="88.00" waitingCount="2" stopTime="0.00" timeLoss="116.51" rerouteNo="1" devices="tripinfo_carIn107084:1 routing_carIn107084:1" vType="default_016" speedFactor="0.91" vaporized=""/>
    <tripinfo id="h4388c1:3" depart="57693.00" departLane="315358254#0_1" departPos="5.10" departSpeed="0.00" departDelay="1.80" arrival="57899.00" arrivalLane="32978638#0_1" arrivalPos="49.29" arrivalSpeed="13.81" duration="206.00" routeLength="2207.01" waitingTime="14.00" waitingCount="2" stopTime="0.00" timeLoss="52.35" rerouteNo="1" devices="tripinfo_h4388c1:3 routing_h4388c1:3" vType="default_016" speedFactor="1.05" vaporized=""/>
    <tripinfo id="h19577c1:1" depart="57694.00" departLane="128361109#1_1" departPos="5.10" departSpeed="0.00" departDelay="2.80" arrival="57899.00" arrivalLane="386687235_2" arrivalPos="80.84" arrivalSpeed="13.59" duration="205.00" routeLength="2088.57" waitingTime="23.00" waitingCount="2" stopTime="0.00" timeLoss="59.19" rerouteNo="1" devices="tripinfo_h19577c1:1 routing_h19577c1:1" vType="default_016" speedFactor="1.04" vaporized=""/>
    <tripinfo id="carIn28951:1" depart="57606.00" departLane="10425609#0_1" departPos="5.10" departSpeed="0.00" departDelay="0.20" arrival="57900.00" arrivalLane="-128361102#1_1" arrivalPos="274.68" arrivalSpeed="13.31" duration="294.00" routeLength="2113.04" waitingTime="101.00" waitingCount="3" stopTime="0.00" timeLoss="146.57" rerouteNo="1" devices="tripinfo_carIn28951:1 routing_carIn28951:1" vType="default_016" speedFactor="1.05" vaporized=""/>
    <tripinfo id="h825c2:3" depart="57690.00" departLane="315358254#0_1" departPos="5.10" departSpeed="0.00" departDelay="0.50" arrival="57901.00" arrivalLane="32978638#0_1" arrivalPos="49.29" arrivalSpeed="15.46" duration="211.00" routeLength="2207.01" waitingTime="19.00" waitingCount="3" stopTime="0.00" timeLoss="67.47" rerouteNo="1" devices="tripinfo_h825c2:3 routing_h825c2:3" vType="default_016" speedFactor="1.12" vaporized=""/>
    <tripinfo id="randUni3548:1" depart="57726.00" departLane="-447569998#1_1" departPos="5.10" departSpeed="0.00" departDelay="0.00" arrival="57901.00" arrivalLane="-315358254#1_1" arrivalPos="137.16" arrivalSpeed="13.71" duration="175.00" routeLength="1746.60" waitingTime="16.00" waitingCount="1" stopTime="0.00" timeLoss="43.65" rerouteNo="1" devices="tripinfo_randUni3548:1 routing_randUni3548:1" vType="random_016" speedFactor="1.05" vaporized=""/>