<?xml version="1.0" encoding="UTF-8"?>

<!-- generated on 12/09/21 21:32:33 by Eclipse SUMO sumo Version 1.7.0
<configuration xmlns:xsi="http://www.w3.org/2001/XMLSchema-instance" xsi:noNamespaceSchemaLocation="http://sumo.dlr.de/xsd/sumoConfiguration.xsd">

    <input>
        <net-file value="C:\Users\longs\Desktop\RESCO-main\environments/cologne8/cologne8.net.xml"/>
        <route-files value="C:\Users\longs\Desktop\RESCO-main\environments/cologne8/cologne8.rou.xml"/>
    </input>

    <output>
        <tripinfo-output value="C:\Users\longs\Desktop\RESCO-main\logs\IDQN-tr1-cologne8-0-drqlong-delaydiff_pressure05\tripinfo_20.xml"/>
        <tripinfo-output.write-unfinished value="true"/>
    </output>

    <time>
        <begin value="25200"/>
        <end value="28800"/>
    </time>

    <processing>
        <time-to-teleport value="-1"/>
    </processing>

    <report>
        <no-warnings value="true"/>
        <no-step-log value="true"/>
    </report>

    <traci_server>
        <remote-port value="64077"/>
    </traci_server>

    <random_number>
        <random value="true"/>
    </random_number>

</configuration>
-->

<tripinfos xmlns:xsi="http://www.w3.org/2001/XMLSchema-instance" xsi:noNamespaceSchemaLocation="http://sumo.dlr.de/xsd/tripinfo_file.xsd">
    <tripinfo id="142890_415_0" depart="25218.00" departLane="-23283579#1_0" departPos="4.40" departSpeed="0.00" departDelay="0.00" arrival="25225.00" arrivalLane="23283579#1_0" arrivalPos="22.22" arrivalSpeed="10.86" duration="7.00" routeLength="44.72" waitingTime="0.00" waitingCount="0" stopTime="0.00" timeLoss="3.16" rerouteNo="0" devices="tripinfo_142890_415_0 routing_142890_415_0" vType="pkw" speedFactor="0.84" vaporized=""/>
    <tripinfo id="137959_412_0" depart="25209.00" departLane="-186623965#18_0" departPos="4.40" departSpeed="0.00" departDelay="0.00" arrival="25239.00" arrivalLane="-22917421#4_0" arrivalPos="96.26" arrivalSpeed="8.36" duration="30.00" routeLength="263.02" waitingTime="0.00" waitingCount="0" stopTime="0.00" timeLoss="5.92" rerouteNo="0" devices="tripinfo_137959_412_0 routing_137959_412_0" vType="pkw" speedFactor="1.02" vaporized=""/>
    <tripinfo id="137312_412_0" depart="25200.00" departLane="-23283579#1_0" departPos="4.40" departSpeed="0.00" departDelay="0.00" arrival="25241.00" arrivalLane="23283436_0" arrivalPos="65.76" arrivalSpeed="12.44" duration="41.00" routeLength="404.67" waitingTime="0.00" waitingCount="0" stopTime="0.00" timeLoss="8.55" rerouteNo="1" devices="tripinfo_137312_412_0 routing_137312_412_0" vType="pkw" speedFactor="0.91" vaporized=""/>
    <tripinfo id="155570_420_0" depart="25200.00" departLane="-28675510#11_0" departPos="4.40" departSpeed="0.00" departDelay="0.00" arrival="25247.00" arrivalLane="28675510#7_0" arrivalPos="257.94" arrivalSpeed="12.62" duration="47.00" routeLength="516.12" waitingTime="0.00" waitingCount="0" stopTime="0.00" timeLoss="5.71" rerouteNo="0" devices="tripinfo_155570_420_0 routing_155570_420_0" vType="pkw" speedFactor="0.92" vaporized=""/>
    <tripinfo id="134603_411_0" depart="25206.00" departLane="-28675510#11_0" departPos="4.40" departSpeed="0.00" departDelay="0.00" arrival="25248.00" arrivalLane="28675510#7_0" arrivalPos="257.94" arrivalSpeed="14.36" duration="42.00" routeLength="516.12" waitingTime="0.00" waitingCount="0" stopTime="0.00" timeLoss="9.23" rerouteNo="0" devices="tripinfo_134603_411_0 routing_134603_411_0" vType="pkw" speedFactor="1.15" vaporized=""/>
    <tripinfo id="140143_414_0" depart="25212.00" departLane="-28675510#11_0" departPos="4.40" departSpeed="0.00" departDelay="2.00" arrival="25257.00" arrivalLane="28675510#7_0" arrivalPos="257.94" arrivalSpeed="12.66" duration="45.00" routeLength="516.12" waitingTime="0.00" waitingCount="0" stopTime="0.00" timeLoss="5.35" rerouteNo="0" devices="tripinfo_140143_414_0 routing_140143_414_0" vType="pkw" speedFactor="0.95" vaporized=""/>
    <tripinfo id="114597_403_0" depart="25201.00" departLane="22917421#3_0" departPos="4.40" departSpeed="0.00" departDelay="0.00" arrival="25260.00" arrivalLane="-186623965#14_0" arrivalPos="159.69" arrivalSpeed="11.73" duration="59.00" routeLength="476.78" waitingTime="5.00" waitingCount="1" stopTime="0.00" timeLoss="15.00" rerouteNo="1" devices="tripinfo_114597_403_0 routing_114597_403_0" vType="pkw" speedFactor="0.89" vaporized=""/>
    <tripinfo id="138070_412_0" depart="25229.00" departLane="22917421#3_0" departPos="4.40" departSpeed="0.00" departDelay="0.00" arrival="25260.00" arrivalLane="186623965#17_0" arrivalPos="143.63" arrivalSpeed="11.21" duration="31.00" routeLength="257.42" waitingTime="0.00" waitingCount="0" stopTime="0.00" timeLoss="5.08" rerouteNo="0" devices="tripinfo_138070_412_0 routing_138070_412_0" vType="pkw" speedFactor="0.90" vaporized=""/>
    <tripinfo id="153496_420_0" depart="25232.00" departLane="22917421#3_0" departPos="4.40" departSpeed="0.00" departDelay="0.00" arrival="25262.00" arrivalLane="186623965#17_0" arrivalPos="143.63" arrivalSpeed="13.43" duration="30.00" routeLength="257.42" waitingTime="0.00" waitingCount="0" stopTime="0.00" timeLoss="6.46" rerouteNo="0" devices="tripinfo_153496_420_0 routing_153496_420_0" vType="pkw" speedFactor="1.01" vaporized=""/>
    <tripinfo id="155353_420_0" depart="25234.00" departLane="22917421#3_0" departPos="4.40" departSpeed="0.00" departDelay="0.00" arrival="25263.00" arrivalLane="186623965#17_0" arrivalPos="143.63" arrivalSpeed="14.80" duration="29.00" routeLength="257.42" waitingTime="0.00" waitingCount="0" stopTime="0.00" timeLoss="8.65" rerouteNo="0" devices="tripinfo_155353_420_0 routing_155353_420_0" vType="pkw" speedFactor="1.15" vaporized=""/>
    <tripinfo id="135663_411_0" depart="25217.00" departLane="-28675510#11_0" departPos="4.40" departSpeed="0.00" departDelay="3.00" arrival="25267.00" arrivalLane="28675510#7_0" arrivalPos="257.94" arrivalSpeed="11.32" duration="50.00" routeLength="516.12" waitingTime="0.00" waitingCount="0" stopTime="0.00" timeLoss="6.67" rerouteNo="0" devices="tripinfo_135663_411_0 routing_135663_411_0" vType="pkw" speedFactor="0.87" vaporized=""/>
    <tripinfo id="119181_405_0" depart="25226.00" departLane="186623965#9_0" departPos="4.40" departSpeed="0.00" departDelay="0.00" arrival="25269.00" arrivalLane="42925825#0_0" arrivalPos="254.17" arrivalSpeed="11.72" duration="43.00" routeLength="418.48" waitingTime="0.00" waitingCount="0" stopTime="0.00" timeLoss="9.17" rerouteNo="0" devices="tripinfo_119181_405_0 routing_119181_405_0" vType="pkw" speedFactor="0.90" vaporized=""/>
    <tripinfo id="133416_410_0" depart="25229.00" departLane="186623965#9_0" departPos="4.40" departSpeed="0.00" departDelay="1.00" arrival="25270.00" arrivalLane="42925825#0_0" arrivalPos="254.17" arrivalSpeed="13.55" duration="41.00" routeLength="418.48" waitingTime="0.00" waitingCount="0" stopTime="0.00" timeLoss="15.47" rerouteNo="0" devices="tripinfo_133416_410_0 routing_133416_410_0" vType="pkw" speedFactor="1.18" vaporized=""/>
    <tripinfo id="149045_417_0" depart="25220.00" departLane="-28675510#11_0" departPos="4.40" departSpeed="0.00" departDelay="3.00" arrival="25271.00" arrivalLane="28675510#7_0" arrivalPos="257.94" arrivalSpeed="11.31" duration="51.00" routeLength="516.12" waitingTime="0.00" waitingCount="0" stopTime="0.00" timeLoss="6.44" rerouteNo="0" devices="tripinfo_149045_417_0 routing_149045_417_0" vType="pkw" speedFactor="0.85" vaporized=""/>
    <tripinfo id="134428_411_0" depart="25237.00" departLane="-28675510#11_0" departPos="4.40" departSpeed="0.00" departDelay="0.00" arrival="25285.00" arrivalLane="28675510#7_0" arrivalPos="257.94" arrivalSpeed="11.82" duration="48.00" routeLength="516.12" waitingTime="0.00" waitingCount="0" stopTime="0.00" timeLoss="6.05" rerouteNo="0" devices="tripinfo_134428_411_0 routing_134428_411_0" vType="pkw" speedFactor="0.89" vaporized=""/>
    <tripinfo id="161942_421_0" depart="25233.00" departLane="-42925825#2_0" departPos="4.40" departSpeed="0.00" departDelay="0.00" arrival="25286.00" arrivalLane="42925825#0_0" arrivalPos="254.17" arrivalSpeed="12.72" duration="53.00" routeLength="508.64" waitingTime="5.00" waitingCount="1" stopTime="0.00" timeLoss="13.26" rerouteNo="0" devices="tripinfo_161942_421_0 routing_161942_421_0" vType="pkw" speedFactor="0.94" vaporized=""/>
    <tripinfo id="140525_414_0" depart="25221.00" departLane="186623965#9_0" departPos="4.40" departSpeed="0.00" departDelay="0.00" arrival="25289.00" arrivalLane="186623965#17_0" arrivalPos="143.63" arrivalSpeed="12.33" duration="68.00" routeLength="527.61" waitingTime="14.00" waitingCount="2" stopTime="0.00" timeLoss="27.04" rerouteNo="1" devices="tripinfo_140525_414_0 routing_140525_414_0" vType="pkw" speedFactor="0.95" vaporized=""/>
    <tripinfo id="76230_386_0" depart="25204.00" departLane="-23283579#1_0" departPos="4.40" departSpeed="0.00" departDelay="0.00" arrival="25299.00" arrivalLane="297047309#0_0" arrivalPos="91.17" arrivalSpeed="13.85" duration="95.00" routeLength="656.20" waitingTime="16.00" waitingCount="1" stopTime="0.00" timeLoss="30.52" rerouteNo="1" devices="tripinfo_76230_386_0 routing_76230_386_0" vType="pkw" speedFactor="1.02" vaporized=""/>
    <tripinfo id="110248_401_0" depart="25206.00" departLane="-23283579#1_0" departPos="4.40" departSpeed="0.00" departDelay="0.00" arrival="25301.00" arrivalLane="297047309#0_0" arrivalPos="91.17" arrivalSpeed="12.99" duration="95.00" routeLength="656.20" waitingTime="15.00" waitingCount="1" stopTime="0.00" timeLoss="29.67" rerouteNo="1" devices="tripinfo_110248_401_0 routing_110248_401_0" vType="pkw" speedFactor="1.01" vaporized=""/>
    <tripinfo id="163799_422_0" depart="25257.00" departLane="-186623965#18_0" departPos="4.40" departSpeed="0.00" departDelay="2.00" arrival="25304.00" arrivalLane="-22917421#4_0" arrivalPos="96.26" arrivalSpeed="6.34" duration="47.00" routeLength="263.02" waitingTime="2.00" waitingCount="1" stopTime="0.00" timeLoss="17.25" rerouteNo="0" devices="tripinfo_163799_422_0 routing_163799_422_0" vType="pkw" speedFactor="0.83" vaporized=""/>
    <tripinfo id="121484_406_0" depart="25268.00" departLane="-23283579#1_0" departPos="4.40" departSpeed="0.00" departDelay="0.00" arrival="25306.00" arrivalLane="133081987#3_0" arrivalPos="99.94" arrivalSpeed="13.29" duration="38.00" routeLength="434.85" waitingTime="0.00" waitingCount="0" stopTime="0.00" timeLoss="6.32" rerouteNo="1" devices="tripinfo_121484_406_0 routing_121484_406_0" vType="pkw" speedFactor="0.99" vaporized=""/>
    <tripinfo id="113370_402_0" depart="25249.00" departLane="186623965#9_0" departPos="4.40" departSpeed="0.00" departDelay="0.00" arrival="25307.00" arrivalLane="42925825#0_0" arrivalPos="254.17" arrivalSpeed="11.98" duration="58.00" routeLength="418.48" waitingTime="15.00" waitingCount="1" stopTime="0.00" timeLoss="24.39" rerouteNo="0" devices="tripinfo_113370_402_0 routing_113370_402_0" vType="pkw" speedFactor="0.92" vaporized=""/>
    <tripinfo id="145282_416_0" depart="25259.00" departLane="186623965#9_0" departPos="4.40" departSpeed="0.00" departDelay="0.00" arrival="25308.00" arrivalLane="42925825#0_0" arrivalPos="254.17" arrivalSpeed="13.00" duration="49.00" routeLength="418.48" waitingTime="8.00" waitingCount="1" stopTime="0.00" timeLoss="19.43" rerouteNo="0" devices="tripinfo_145282_416_0 routing_145282_416_0" vType="pkw" speedFactor="1.03" vaporized=""/>
    <tripinfo id="111571_401_0" depart="25267.00" departLane="-353069169#0_0" departPos="4.40" departSpeed="0.00" departDelay="0.00" arrival="25309.00" arrivalLane="24487264_0" arrivalPos="166.35" arrivalSpeed="12.07" duration="42.00" routeLength="286.19" waitingTime="9.00" waitingCount="1" stopTime="0.00" timeLoss="19.40" rerouteNo="1" devices="tripinfo_111571_401_0 routing_111571_401_0" vType="pkw" speedFactor="0.96" vaporized=""/>
    <tripinfo id="141355_415_0" depart="25232.00" departLane="-186623965#18_0" departPos="4.40" departSpeed="0.00" departDelay="0.00" arrival="25310.00" arrivalLane="42925825#0_0" arrivalPos="254.17" arrivalSpeed="15.25" duration="78.00" routeLength="625.62" waitingTime="24.00" waitingCount="1" stopTime="0.00" timeLoss="36.30" rerouteNo="1" devices="tripinfo_141355_415_0 routing_141355_415_0" vType="pkw" speedFactor="1.10" vaporized=""/>
    <tripinfo id="150593_418_0" depart="25297.00" departLane="22959552#0_0" departPos="4.40" departSpeed="0.00" departDelay="0.00" arrival="25310.00" arrivalLane="22959552#0_0" arrivalPos="91.39" arrivalSpeed="8.14" duration="13.00" routeLength="86.99" waitingTime="0.00" waitingCount="0" stopTime="0.00" timeLoss="1.83" rerouteNo="1" devices="tripinfo_150593_418_0 routing_150593_418_0" vType="pkw" speedFactor="0.98" vaporized=""/>
    <tripinfo id="127809_407_0" depart="25257.00" departLane="-23283579#1_0" departPos="4.40" departSpeed="0.00" departDelay="0.00" arrival="25314.00" arrivalLane="23285888#0_0" arrivalPos="109.58" arrivalSpeed="6.51" duration="57.00" routeLength="410.95" waitingTime="0.00" waitingCount="0" stopTime="0.00" timeLoss="8.98" rerouteNo="1" devices="tripinfo_127809_407_0 routing_127809_407_0" vType="pkw" speedFactor="0.93" vaporized=""/>
    <tripinfo id="156485_420_0" depart="25205.00" departLane="22959552#0_0" departPos="4.40" departSpeed="0.00" departDelay="0.00" arrival="25326.00" arrivalLane="28675510#7_0" arrivalPos="257.94" arrivalSpeed="13.99" duration="121.00" routeLength="1112.54" waitingTime="12.00" waitingCount="1" stopTime="0.00" timeLoss="25.30" rerouteNo="1" devices="tripinfo_156485_420_0 routing_156485_420_0" vType="pkw" speedFactor="1.08" vaporized=""/>
    <tripinfo id="166162_424_0" depart="25233.00" departLane="22959550#0_0" departPos="4.40" departSpeed="0.00" departDelay="0.00" arrival="25328.00" arrivalLane="28675510#7_0" arrivalPos="257.94" arrivalSpeed="14.00" duration="95.00" routeLength="903.30" waitingTime="2.00" waitingCount="1" stopTime="0.00" timeLoss="16.94" rerouteNo="1" devices="tripinfo_166162_424_0 routing_166162_424_0" vType="pkw" speedFactor="1.09" vaporized=""/>
    <tripinfo id="131243_409_0" depart="25248.00" departLane="-186623965#18_0" departPos="4.40" departSpeed="0.00" departDelay="0.00" arrival="25331.00" arrivalLane="-186623965#14_0" arrivalPos="159.69" arrivalSpeed="13.37" duration="83.00" routeLength="528.65" waitingTime="21.00" waitingCount="2" stopTime="0.00" timeLoss="42.73" rerouteNo="1" devices="tripinfo_131243_409_0 routing_131243_409_0" vType="pkw" speedFactor="0.97" vaporized=""/>
    <tripinfo id="131071_409_0" depart="25236.00" departLane="-186623965#18_0" departPos="4.40" departSpeed="0.00" departDelay="0.00" arrival="25336.00" arrivalLane="42925825#0_0" arrivalPos="254.17" arrivalSpeed="13.65" duration="100.00" routeLength="625.62" waitingTime="38.00" waitingCount="2" stopTime="0.00" timeLoss="54.13" rerouteNo="1" devices="tripinfo_131071_409_0 routing_131071_409_0" vType="pkw" speedFactor="1.00" vaporized=""/>
    <tripinfo id="126900_407_0" depart="25239.00" departLane="-186623965#18_0" departPos="4.40" departSpeed="0.00" departDelay="0.00" arrival="25338.00" arrivalLane="42925825#0_0" arrivalPos="254.17" arrivalSpeed="13.75" duration="99.00" routeLength="625.62" waitingTime="35.00" waitingCount="2" stopTime="0.00" timeLoss="55.32" rerouteNo="1" devices="tripinfo_126900_407_0 routing_126900_407_0" vType="pkw" speedFactor="1.04" vaporized=""/>
    <tripinfo id="91556_392_0" depart="25270.00" departLane="-23283579#1_0" departPos="4.40" departSpeed="0.00" departDelay="0.00" arrival="25338.00" arrivalLane="23840972_0" arrivalPos="97.66" arrivalSpeed="6.09" duration="68.00" routeLength="525.30" waitingTime="0.00" waitingCount="0" stopTime="0.00" timeLoss="8.37" rerouteNo="1" devices="tripinfo_91556_392_0 routing_91556_392_0" vType="pkw" speedFactor="0.78" vaporized=""/>
    <tripinfo id="118788_405_0" depart="25247.00" departLane="22917421#3_0" departPos="4.40" departSpeed="0.00" departDelay="0.00" arrival="25339.00" arrivalLane="186623965#17_0" arrivalPos="143.63" arrivalSpeed="11.66" duration="92.00" routeLength="257.42" waitingTime="60.00" waitingCount="1" stopTime="0.00" timeLoss="66.02" rerouteNo="0" devices="tripinfo_118788_405_0 routing_118788_405_0" vType="pkw" speedFactor="0.90" vaporized=""/>
    <tripinfo id="152801_419_0" depart="25299.00" departLane="-297047307_0" departPos="4.40" departSpeed="0.00" departDelay="0.00" arrival="25339.00" arrivalLane="297047309#0_0" arrivalPos="91.17" arrivalSpeed="13.43" duration="40.00" routeLength="439.92" waitingTime="0.00" waitingCount="0" stopTime="0.00" timeLoss="7.10" rerouteNo="1" devices="tripinfo_152801_419_0 routing_152801_419_0" vType="pkw" speedFactor="0.99" vaporized=""/>
    <tripinfo id="163043_422_0" depart="25214.00" departLane="-28675510#11_0" departPos="4.40" departSpeed="0.00" departDelay="2.00" arrival="25341.00" arrivalLane="8716827#0_0" arrivalPos="109.12" arrivalSpeed="8.18" duration="127.00" routeLength="1154.53" waitingTime="25.00" waitingCount="1" stopTime="0.00" timeLoss="39.63" rerouteNo="1" devices="tripinfo_163043_422_0 routing_163043_422_0" vType="pkw" speedFactor="1.02" vaporized=""/>
    <tripinfo id="152887_419_0" depart="25229.00" departLane="-28675510#11_0" departPos="4.40" departSpeed="0.00" departDelay="0.00" arrival="25343.00" arrivalLane="8716827#0_0" arrivalPos="109.12" arrivalSpeed="7.97" duration="114.00" routeLength="1154.53" waitingTime="11.00" waitingCount="1" stopTime="0.00" timeLoss="25.68" rerouteNo="1" devices="tripinfo_152887_419_0 routing_152887_419_0" vType="pkw" speedFactor="1.01" vaporized=""/>
    <tripinfo id="144617_416_0" depart="25256.00" departLane="22917421#3_0" departPos="4.40" departSpeed="0.00" departDelay="0.00" arrival="25343.00" arrivalLane="186623965#17_0" arrivalPos="143.63" arrivalSpeed="10.87" duration="87.00" routeLength="257.42" waitingTime="51.00" waitingCount="1" stopTime="0.00" timeLoss="57.16" rerouteNo="0" devices="tripinfo_144617_416_0 routing_144617_416_0" vType="pkw" speedFactor="0.79" vaporized=""/>
    <tripinfo id="171184_426_0" depart="25326.00" departLane="133081987#0_0" departPos="4.40" departSpeed="0.00" departDelay="0.00" arrival="25343.00" arrivalLane="23283436_0" arrivalPos="65.76" arrivalSpeed="14.42" duration="17.00" routeLength="154.99" waitingTime="0.00" waitingCount="0" stopTime="0.00" timeLoss="5.92" rerouteNo="0" devices="tripinfo_171184_426_0 routing_171184_426_0" vType="pkw" speedFactor="1.06" vaporized=""/>
    <tripinfo id="159622_421_0" depart="25254.00" departLane="-186623965#18_0" departPos="4.40" departSpeed="0.00" departDelay="3.00" arrival="25344.00" arrivalLane="42925825#0_0" arrivalPos="254.17" arrivalSpeed="11.63" duration="90.00" routeLength="625.62" waitingTime="16.00" waitingCount="2" stopTime="0.00" timeLoss="37.33" rerouteNo="1" devices="tripinfo_159622_421_0 routing_159622_421_0" vType="pkw" speedFactor="0.87" vaporized=""/>
    <tripinfo id="126698_407_0" depart="25241.00" departLane="-186623965#18_0" departPos="4.40" departSpeed="0.00" departDelay="0.00" arrival="25345.00" arrivalLane="42925825#0_0" arrivalPos="254.17" arrivalSpeed="12.67" duration="104.00" routeLength="625.62" waitingTime="25.00" waitingCount="3" stopTime="0.00" timeLoss="57.55" rerouteNo="1" devices="tripinfo_126698_407_0 routing_126698_407_0" vType="pkw" speedFactor="0.97" vaporized=""/>
    <tripinfo id="162497_421_0" depart="25273.00" departLane="22917421#3_0" departPos="4.40" departSpeed="0.00" departDelay="0.00" arrival="25345.00" arrivalLane="186623965#17_0" arrivalPos="143.63" arrivalSpeed="12.75" duration="72.00" routeLength="257.42" waitingTime="37.00" waitingCount="1" stopTime="0.00" timeLoss="46.60" rerouteNo="0" devices="tripinfo_162497_421_0 routing_162497_421_0" vType="pkw" speedFactor="0.95" vaporized=""/>
    <tripinfo id="161216_421_0" depart="25251.00" departLane="-186623965#18_0" departPos="4.40" departSpeed="0.00" departDelay="3.00" arrival="25347.00" arrivalLane="42925825#0_0" arrivalPos="254.17" arrivalSpeed="13.00" duration="96.00" routeLength="625.62" waitingTime="20.00" waitingCount="2" stopTime="0.00" timeLoss="49.73" rerouteNo="1" devices="tripinfo_161216_421_0 routing_161216_421_0" vType="pkw" speedFactor="0.99" vaporized=""/>
    <tripinfo id="147744_416_0" depart="25272.00" departLane="-186623965#18_0" departPos="4.40" departSpeed="0.00" departDelay="0.00" arrival="25349.00" arrivalLane="42925825#0_0" arrivalPos="254.17" arrivalSpeed="11.65" duration="77.00" routeLength="625.62" waitingTime="11.00" waitingCount="1" stopTime="0.00" timeLoss="27.04" rerouteNo="1" devices="tripinfo_147744_416_0 routing_147744_416_0" vType="pkw" speedFactor="0.91" vaporized=""/>
    <tripinfo id="146152_416_0" depart="25210.00" departLane="25166682#0_0" departPos="4.40" departSpeed="0.00" departDelay="0.00" arrival="25352.00" arrivalLane="28675510#7_0" arrivalPos="257.94" arrivalSpeed="11.66" duration="142.00" routeLength="1219.50" waitingTime="6.00" waitingCount="1" stopTime="0.00" timeLoss="25.79" rerouteNo="1" devices="tripinfo_146152_416_0 routing_146152_416_0" vType="pkw" speedFactor="0.93" vaporized=""/>
    <tripinfo id="138639_413_0" depart="25314.00" departLane="186623965#9_0" departPos="4.40" departSpeed="0.00" departDelay="0.00" arrival="25358.00" arrivalLane="186623965#17_0" arrivalPos="143.63" arrivalSpeed="13.62" duration="44.00" routeLength="527.61" waitingTime="0.00" waitingCount="0" stopTime="0.00" timeLoss="4.94" rerouteNo="1" devices="tripinfo_138639_413_0 routing_138639_413_0" vType="pkw" speedFactor="0.99" vaporized=""/>
    <tripinfo id="158885_421_0" depart="25220.00" departLane="22917421#3_0" departPos="4.40" departSpeed="0.00" departDelay="0.00" arrival="25360.00" arrivalLane="28675510#7_0" arrivalPos="257.94" arrivalSpeed="10.72" duration="140.00" routeLength="937.03" waitingTime="8.00" waitingCount="2" stopTime="0.00" timeLoss="24.72" rerouteNo="1" devices="tripinfo_158885_421_0 routing_158885_421_0" vType="pkw" speedFactor="0.86" vaporized=""/>
    <tripinfo id="174787_427_0" depart="25287.00" departLane="22959550#3_0" departPos="4.40" departSpeed="0.00" departDelay="0.00" arrival="25365.00" arrivalLane="28675510#7_0" arrivalPos="257.94" arrivalSpeed="14.76" duration="78.00" routeLength="757.45" waitingTime="6.00" waitingCount="1" stopTime="0.00" timeLoss="18.06" rerouteNo="1" devices="tripinfo_174787_427_0 routing_174787_427_0" vType="pkw" speedFactor="1.12" vaporized=""/>
    <tripinfo id="158136_421_0" depart="25240.00" departLane="28675510#1_0" departPos="4.40" departSpeed="0.00" departDelay="0.00" arrival="25369.00" arrivalLane="323416262_0" arrivalPos="87.54" arrivalSpeed="11.98" duration="129.00" routeLength="1126.93" waitingTime="0.00" waitingCount="0" stopTime="0.00" timeLoss="13.23" rerouteNo="1" devices="tripinfo_158136_421_0 routing_158136_421_0" vType="pkw" speedFactor="0.90" vaporized=""/>
    <tripinfo id="144017_416_0" depart="25348.00" departLane="-353069169#0_0" departPos="4.40" departSpeed="0.00" departDelay="0.00" arrival="25371.00" arrivalLane="323416262_0" arrivalPos="87.54" arrivalSpeed="15.49" duration="23.00" routeLength="175.35" waitingTime="1.00" waitingCount="1" stopTime="0.00" timeLoss="11.51" rerouteNo="0" devices="tripinfo_144017_416_0 routing_144017_416_0" vType="pkw" speedFactor="1.16" vaporized=""/>
    <tripinfo id="146391_416_0" depart="25313.00" departLane="-28675510#0_0" departPos="4.40" departSpeed="0.00" departDelay="0.00" arrival="25372.00" arrivalLane="28675510#7_0" arrivalPos="257.94" arrivalSpeed="14.91" duration="59.00" routeLength="752.27" waitingTime="0.00" waitingCount="0" stopTime="0.00" timeLoss="8.33" rerouteNo="1" devices="tripinfo_146391_416_0 routing_146391_416_0" vType="pkw" speedFactor="1.08" vaporized=""/>
    <tripinfo id="124742_406_0" depart="25239.00" departLane="22917421#3_0" departPos="4.40" departSpeed="0.00" departDelay="3.00" arrival="25373.00" arrivalLane="28675493_0" arrivalPos="90.85" arrivalSpeed="12.70" duration="134.00" routeLength="1141.94" waitingTime="29.00" waitingCount="2" stopTime="0.00" timeLoss="45.74" rerouteNo="1" devices="tripinfo_124742_406_0 routing_124742_406_0" vType="pkw" speedFactor="0.98" vaporized=""/>
    <tripinfo id="163025_422_0" depart="25248.00" departLane="-28675510#11_0" departPos="4.40" departSpeed="0.00" departDelay="2.00" arrival="25379.00" arrivalLane="8716807#1_0" arrivalPos="110.75" arrivalSpeed="6.56" duration="131.00" routeLength="862.02" waitingTime="29.00" waitingCount="2" stopTime="0.00" timeLoss="48.11" rerouteNo="1" devices="tripinfo_163025_422_0 routing_163025_422_0" vType="pkw" speedFactor="0.89" vaporized=""/>
    <tripinfo id="108769_400_0" depart="25356.00" departLane="-186623965#18_0" departPos="4.40" departSpeed="0.00" departDelay="0.00" arrival="25383.00" arrivalLane="-22917421#4_0" arrivalPos="96.26" arrivalSpeed="8.51" duration="27.00" routeLength="263.02" waitingTime="0.00" waitingCount="0" stopTime="0.00" timeLoss="4.21" rerouteNo="0" devices="tripinfo_108769_400_0 routing_108769_400_0" vType="pkw" speedFactor="1.08" vaporized=""/>
    <tripinfo id="145512_416_0" depart="25308.00" departLane="22917421#3_0" departPos="4.40" departSpeed="0.00" departDelay="0.00" arrival="25387.00" arrivalLane="186623965#17_0" arrivalPos="143.63" arrivalSpeed="13.38" duration="79.00" routeLength="257.42" waitingTime="45.00" waitingCount="2" stopTime="0.00" timeLoss="56.45" rerouteNo="0" devices="tripinfo_145512_416_0 routing_145512_416_0" vType="pkw" speedFactor="1.05" vaporized=""/>
    <tripinfo id="166776_424_0" depart="25209.00" departLane="-28675510#11_0" departPos="4.40" departSpeed="0.00" departDelay="1.00" arrival="25388.00" arrivalLane="-186623965#14_0" arrivalPos="159.69" arrivalSpeed="14.29" duration="179.00" routeLength="1202.17" waitingTime="48.00" waitingCount="2" stopTime="0.00" timeLoss="70.35" rerouteNo="1" devices="tripinfo_166776_424_0 routing_166776_424_0" vType="pkw" speedFactor="1.05" vaporized=""/>
    <tripinfo id="139269_413_0" depart="25307.00" departLane="-23283579#1_0" departPos="4.40" departSpeed="0.00" departDelay="0.00" arrival="25388.00" arrivalLane="-297047308_0" arrivalPos="28.52" arrivalSpeed="12.76" duration="81.00" routeLength="517.28" waitingTime="13.00" waitingCount="1" stopTime="0.00" timeLoss="25.03" rerouteNo="1" devices="tripinfo_139269_413_0 routing_139269_413_0" vType="pkw" speedFactor="1.00" vaporized=""/>
    <tripinfo id="146111_416_0" depart="25223.00" departLane="-28675510#11_0" departPos="4.40" departSpeed="0.00" departDelay="2.00" arrival="25390.00" arrivalLane="-186623965#14_1" arrivalPos="159.69" arrivalSpeed="12.37" duration="167.00" routeLength="1202.17" waitingTime="22.00" waitingCount="1" stopTime="0.00" timeLoss="42.44" rerouteNo="1" devices="tripinfo_146111_416_0 routing_146111_416_0" vType="pkw" speedFactor="0.91" vaporized=""/>
    <tripinfo id="175709_428_0" depart="25324.00" departLane="-186623965#18_0" departPos="4.40" departSpeed="0.00" departDelay="0.00" arrival="25390.00" arrivalLane="-186623965#14_0" arrivalPos="159.69" arrivalSpeed="13.38" duration="66.00" routeLength="528.65" waitingTime="14.00" waitingCount="2" stopTime="0.00" timeLoss="28.29" rerouteNo="1" devices="tripinfo_175709_428_0 routing_175709_428_0" vType="pkw" speedFactor="1.02" vaporized=""/>
    <tripinfo id="122140_406_0" depart="25244.00" departLane="22917421#3_0" departPos="4.40" departSpeed="0.00" departDelay="0.00" arrival="25393.00" arrivalLane="23648008#2_0" arrivalPos="175.60" arrivalSpeed="11.93" duration="149.00" routeLength="1356.05" waitingTime="18.00" waitingCount="2" stopTime="0.00" timeLoss="36.51" rerouteNo="1" devices="tripinfo_122140_406_0 routing_122140_406_0" vType="pkw" speedFactor="0.91" vaporized=""/>
    <tripinfo id="166783_424_0" depart="25349.00" departLane="22917421#3_0" departPos="4.40" departSpeed="0.00" departDelay="0.00" arrival="25396.00" arrivalLane="186623965#17_0" arrivalPos="143.63" arrivalSpeed="13.08" duration="47.00" routeLength="257.42" waitingTime="15.00" waitingCount="1" stopTime="0.00" timeLoss="23.41" rerouteNo="0" devices="tripinfo_166783_424_0 routing_166783_424_0" vType="pkw" speedFactor="1.01" vaporized=""/>
    <tripinfo id="134167_411_0" depart="25211.00" departLane="-23283579#1_0" departPos="4.40" departSpeed="0.00" departDelay="0.00" arrival="25399.00" arrivalLane="-186623965#14_0" arrivalPos="159.69" arrivalSpeed="13.03" duration="188.00" routeLength="1526.65" waitingTime="24.00" waitingCount="3" stopTime="0.00" timeLoss="52.55" rerouteNo="1" devices="tripinfo_134167_411_0 routing_134167_411_0" vType="pkw" speedFactor="0.95" vaporized=""/>
    <tripinfo id="129175_408_0" depart="25255.00" departLane="-23283579#1_0" departPos="4.40" departSpeed="0.00" departDelay="0.00" arrival="25399.00" arrivalLane="323450710#0_0" arrivalPos="95.59" arrivalSpeed="11.42" duration="144.00" routeLength="843.12" waitingTime="34.00" waitingCount="1" stopTime="0.00" timeLoss="49.04" rerouteNo="1" devices="tripinfo_129175_408_0 routing_129175_408_0" vType="pkw" speedFactor="0.83" vaporized=""/>
    <tripinfo id="162890_422_0" depart="25264.00" departLane="8716807#1_0" departPos="4.40" departSpeed="0.00" departDelay="0.00" arrival="25400.00" arrivalLane="28675510#7_0" arrivalPos="257.94" arrivalSpeed="12.08" duration="136.00" routeLength="973.61" waitingTime="19.00" waitingCount="2" stopTime="0.00" timeLoss="37.57" rerouteNo="1" devices="tripinfo_162890_422_0 routing_162890_422_0" vType="pkw" speedFactor="0.88" vaporized=""/>
    <tripinfo id="160358_421_0" depart="25214.00" departLane="-23283579#1_0" departPos="4.40" departSpeed="0.00" departDelay="1.00" arrival="25401.00" arrivalLane="-186623965#14_0" arrivalPos="159.69" arrivalSpeed="12.47" duration="187.00" routeLength="1526.65" waitingTime="21.00" waitingCount="3" stopTime="0.00" timeLoss="48.96" rerouteNo="1" devices="tripinfo_160358_421_0 routing_160358_421_0" vType="pkw" speedFactor="0.93" vaporized=""/>