<?xml version="1.0" encoding="UTF-8"?>

<!-- generated on 12/09/21 22:14:08 by Eclipse SUMO sumo Version 1.7.0
<configuration xmlns:xsi="http://www.w3.org/2001/XMLSchema-instance" xsi:noNamespaceSchemaLocation="http://sumo.dlr.de/xsd/sumoConfiguration.xsd">

    <input>
        <net-file value="C:\Users\longs\Desktop\RESCO-main\environments/cologne8/cologne8.net.xml"/>
        <route-files value="C:\Users\longs\Desktop\RESCO-main\environments/cologne8/cologne8.rou.xml"/>
    </input>

    <output>
        <tripinfo-output value="C:\Users\longs\Desktop\RESCO-main\logs\IDQN-tr1-cologne8-0-drqlong-delaydiff_pressure09\tripinfo_2.xml"/>
        <tripinfo-output.write-unfinished value="true"/>
    </output>

    <time>
        <begin value="25200"/>
        <end value="28800"/>
    </time>

    <processing>
        <time-to-teleport value="-1"/>
    </processing>

    <report>
        <no-warnings value="true"/>
        <no-step-log value="true"/>
    </report>

    <traci_server>
        <remote-port value="65482"/>
    </traci_server>

    <random_number>
        <random value="true"/>
    </random_number>

</configuration>
-->

<tripinfos xmlns:xsi="http://www.w3.org/2001/XMLSchema-instance" xsi:noNamespaceSchemaLocation="http://sumo.dlr.de/xsd/tripinfo_file.xsd">
    <tripinfo id="142890_415_0" depart="25218.00" departLane="-23283579#1_0" departPos="4.40" departSpeed="0.00" departDelay="0.00" arrival="25226.00" arrivalLane="23283579#1_0" arrivalPos="22.22" arrivalSpeed="11.12" duration="8.00" routeLength="44.72" waitingTime="0.00" waitingCount="0" stopTime="0.00" timeLoss="4.05" rerouteNo="0" devices="tripinfo_142890_415_0 routing_142890_415_0" vType="pkw" speedFactor="0.95" vaporized=""/>
    <tripinfo id="137312_412_0" depart="25200.00" departLane="-23283579#1_0" departPos="4.40" departSpeed="0.00" departDelay="0.00" arrival="25239.00" arrivalLane="23283436_0" arrivalPos="65.76" arrivalSpeed="11.12" duration="39.00" routeLength="404.67" waitingTime="0.00" waitingCount="0" stopTime="0.00" timeLoss="4.12" rerouteNo="1" devices="tripinfo_137312_412_0 routing_137312_412_0" vType="pkw" speedFactor="0.86" vaporized=""/>
    <tripinfo id="137959_412_0" depart="25209.00" departLane="-186623965#18_0" departPos="4.40" departSpeed="0.00" departDelay="0.00" arrival="25242.00" arrivalLane="-22917421#4_0" arrivalPos="96.26" arrivalSpeed="6.31" duration="33.00" routeLength="263.02" waitingTime="0.00" waitingCount="0" stopTime="0.00" timeLoss="5.61" rerouteNo="0" devices="tripinfo_137959_412_0 routing_137959_412_0" vType="pkw" speedFactor="0.89" vaporized=""/>
    <tripinfo id="155570_420_0" depart="25200.00" departLane="-28675510#11_0" departPos="4.40" departSpeed="0.00" departDelay="0.00" arrival="25243.00" arrivalLane="28675510#7_0" arrivalPos="257.94" arrivalSpeed="14.70" duration="43.00" routeLength="516.12" waitingTime="0.00" waitingCount="0" stopTime="0.00" timeLoss="7.29" rerouteNo="0" devices="tripinfo_155570_420_0 routing_155570_420_0" vType="pkw" speedFactor="1.06" vaporized=""/>
    <tripinfo id="134603_411_0" depart="25206.00" departLane="-28675510#11_0" departPos="4.40" departSpeed="0.00" departDelay="0.00" arrival="25245.00" arrivalLane="28675510#7_0" arrivalPos="257.94" arrivalSpeed="14.37" duration="39.00" routeLength="516.12" waitingTime="0.00" waitingCount="0" stopTime="0.00" timeLoss="4.83" rerouteNo="0" devices="tripinfo_134603_411_0 routing_134603_411_0" vType="pkw" speedFactor="1.11" vaporized=""/>
    <tripinfo id="140143_414_0" depart="25212.00" departLane="-28675510#11_0" departPos="4.40" departSpeed="0.00" departDelay="2.00" arrival="25253.00" arrivalLane="28675510#7_0" arrivalPos="257.94" arrivalSpeed="14.28" duration="41.00" routeLength="516.12" waitingTime="0.00" waitingCount="0" stopTime="0.00" timeLoss="5.44" rerouteNo="0" devices="tripinfo_140143_414_0 routing_140143_414_0" vType="pkw" speedFactor="1.06" vaporized=""/>
    <tripinfo id="114597_403_0" depart="25201.00" departLane="22917421#3_0" departPos="4.40" departSpeed="0.00" departDelay="0.00" arrival="25268.00" arrivalLane="-186623965#14_0" arrivalPos="159.69" arrivalSpeed="11.94" duration="67.00" routeLength="476.78" waitingTime="14.00" waitingCount="1" stopTime="0.00" timeLoss="23.25" rerouteNo="1" devices="tripinfo_114597_403_0 routing_114597_403_0" vType="pkw" speedFactor="0.91" vaporized=""/>
    <tripinfo id="140525_414_0" depart="25221.00" departLane="186623965#9_0" departPos="4.40" departSpeed="0.00" departDelay="0.00" arrival="25279.00" arrivalLane="186623965#17_0" arrivalPos="143.63" arrivalSpeed="12.33" duration="58.00" routeLength="527.61" waitingTime="8.00" waitingCount="1" stopTime="0.00" timeLoss="17.32" rerouteNo="1" devices="tripinfo_140525_414_0 routing_140525_414_0" vType="pkw" speedFactor="0.95" vaporized=""/>
    <tripinfo id="119181_405_0" depart="25226.00" departLane="186623965#9_0" departPos="4.40" departSpeed="0.00" departDelay="0.00" arrival="25279.00" arrivalLane="42925825#0_0" arrivalPos="254.17" arrivalSpeed="11.47" duration="53.00" routeLength="418.48" waitingTime="8.00" waitingCount="1" stopTime="0.00" timeLoss="16.51" rerouteNo="0" devices="tripinfo_119181_405_0 routing_119181_405_0" vType="pkw" speedFactor="0.83" vaporized=""/>
    <tripinfo id="133416_410_0" depart="25228.00" departLane="186623965#9_0" departPos="4.40" departSpeed="0.00" departDelay="0.00" arrival="25281.00" arrivalLane="42925825#0_0" arrivalPos="254.17" arrivalSpeed="14.56" duration="53.00" routeLength="418.48" waitingTime="6.00" waitingCount="1" stopTime="0.00" timeLoss="23.69" rerouteNo="0" devices="tripinfo_133416_410_0 routing_133416_410_0" vType="pkw" speedFactor="1.06" vaporized=""/>
    <tripinfo id="141355_415_0" depart="25232.00" departLane="-186623965#18_0" departPos="4.40" departSpeed="0.00" departDelay="0.00" arrival="25289.00" arrivalLane="42925825#0_0" arrivalPos="254.17" arrivalSpeed="11.74" duration="57.00" routeLength="625.62" waitingTime="0.00" waitingCount="0" stopTime="0.00" timeLoss="5.86" rerouteNo="1" devices="tripinfo_141355_415_0 routing_141355_415_0" vType="pkw" speedFactor="0.90" vaporized=""/>
    <tripinfo id="131071_409_0" depart="25236.00" departLane="-186623965#18_0" departPos="4.40" departSpeed="0.00" departDelay="0.00" arrival="25290.00" arrivalLane="42925825#0_0" arrivalPos="254.17" arrivalSpeed="13.09" duration="54.00" routeLength="625.62" waitingTime="0.00" waitingCount="0" stopTime="0.00" timeLoss="8.79" rerouteNo="1" devices="tripinfo_131071_409_0 routing_131071_409_0" vType="pkw" speedFactor="1.00" vaporized=""/>
    <tripinfo id="161942_421_0" depart="25233.00" departLane="-42925825#2_0" departPos="4.40" departSpeed="0.00" departDelay="0.00" arrival="25296.00" arrivalLane="42925825#0_0" arrivalPos="254.17" arrivalSpeed="11.45" duration="63.00" routeLength="508.64" waitingTime="13.00" waitingCount="1" stopTime="0.00" timeLoss="22.57" rerouteNo="0" devices="tripinfo_161942_421_0 routing_161942_421_0" vType="pkw" speedFactor="0.91" vaporized=""/>
    <tripinfo id="131243_409_0" depart="25248.00" departLane="-186623965#18_0" departPos="4.40" departSpeed="0.00" departDelay="0.00" arrival="25300.00" arrivalLane="-186623965#14_0" arrivalPos="159.69" arrivalSpeed="12.68" duration="52.00" routeLength="528.65" waitingTime="0.00" waitingCount="0" stopTime="0.00" timeLoss="9.70" rerouteNo="1" devices="tripinfo_131243_409_0 routing_131243_409_0" vType="pkw" speedFactor="0.92" vaporized=""/>
    <tripinfo id="111571_401_0" depart="25267.00" departLane="-353069169#0_0" departPos="4.40" departSpeed="0.00" departDelay="0.00" arrival="25300.00" arrivalLane="24487264_0" arrivalPos="166.35" arrivalSpeed="11.72" duration="33.00" routeLength="286.19" waitingTime="0.00" waitingCount="0" stopTime="0.00" timeLoss="8.13" rerouteNo="1" devices="tripinfo_111571_401_0 routing_111571_401_0" vType="pkw" speedFactor="0.90" vaporized=""/>
    <tripinfo id="163799_422_0" depart="25257.00" departLane="-186623965#18_0" departPos="4.40" departSpeed="0.00" departDelay="2.00" arrival="25301.00" arrivalLane="-22917421#4_0" arrivalPos="96.26" arrivalSpeed="6.99" duration="44.00" routeLength="263.02" waitingTime="7.00" waitingCount="1" stopTime="0.00" timeLoss="17.02" rerouteNo="0" devices="tripinfo_163799_422_0 routing_163799_422_0" vType="pkw" speedFactor="0.92" vaporized=""/>
    <tripinfo id="113370_402_0" depart="25249.00" departLane="186623965#9_0" departPos="4.40" departSpeed="0.00" departDelay="0.00" arrival="25305.00" arrivalLane="42925825#0_0" arrivalPos="254.17" arrivalSpeed="13.35" duration="56.00" routeLength="418.48" waitingTime="16.00" waitingCount="1" stopTime="0.00" timeLoss="25.96" rerouteNo="0" devices="tripinfo_113370_402_0 routing_113370_402_0" vType="pkw" speedFactor="1.02" vaporized=""/>
    <tripinfo id="145282_416_0" depart="25259.00" departLane="186623965#9_0" departPos="4.40" departSpeed="0.00" departDelay="0.00" arrival="25307.00" arrivalLane="42925825#0_0" arrivalPos="254.17" arrivalSpeed="16.06" duration="48.00" routeLength="418.48" waitingTime="8.00" waitingCount="1" stopTime="0.00" timeLoss="21.84" rerouteNo="0" devices="tripinfo_145282_416_0 routing_145282_416_0" vType="pkw" speedFactor="1.19" vaporized=""/>
    <tripinfo id="135663_411_0" depart="25217.00" departLane="-28675510#11_0" departPos="4.40" departSpeed="0.00" departDelay="3.00" arrival="25309.00" arrivalLane="28675510#7_0" arrivalPos="257.94" arrivalSpeed="11.84" duration="92.00" routeLength="516.12" waitingTime="40.00" waitingCount="2" stopTime="0.00" timeLoss="50.31" rerouteNo="0" devices="tripinfo_135663_411_0 routing_135663_411_0" vType="pkw" speedFactor="0.90" vaporized=""/>
    <tripinfo id="149045_417_0" depart="25220.00" departLane="-28675510#11_0" departPos="4.40" departSpeed="0.00" departDelay="3.00" arrival="25311.00" arrivalLane="28675510#7_0" arrivalPos="257.94" arrivalSpeed="12.14" duration="91.00" routeLength="516.12" waitingTime="38.00" waitingCount="1" stopTime="0.00" timeLoss="51.25" rerouteNo="0" devices="tripinfo_149045_417_0 routing_149045_417_0" vType="pkw" speedFactor="0.95" vaporized=""/>
    <tripinfo id="150593_418_0" depart="25297.00" departLane="22959552#0_0" departPos="4.40" departSpeed="0.00" departDelay="0.00" arrival="25311.00" arrivalLane="22959552#0_0" arrivalPos="91.39" arrivalSpeed="7.20" duration="14.00" routeLength="86.99" waitingTime="0.00" waitingCount="0" stopTime="0.00" timeLoss="2.27" rerouteNo="1" devices="tripinfo_150593_418_0 routing_150593_418_0" vType="pkw" speedFactor="0.95" vaporized=""/>
    <tripinfo id="126900_407_0" depart="25239.00" departLane="-186623965#18_0" departPos="4.40" departSpeed="0.00" departDelay="0.00" arrival="25313.00" arrivalLane="42925825#0_0" arrivalPos="254.17" arrivalSpeed="11.37" duration="74.00" routeLength="625.62" waitingTime="6.00" waitingCount="1" stopTime="0.00" timeLoss="20.29" rerouteNo="1" devices="tripinfo_126900_407_0 routing_126900_407_0" vType="pkw" speedFactor="0.85" vaporized=""/>
    <tripinfo id="126698_407_0" depart="25242.00" departLane="-186623965#18_0" departPos="4.40" departSpeed="0.00" departDelay="1.00" arrival="25315.00" arrivalLane="42925825#0_0" arrivalPos="254.17" arrivalSpeed="11.05" duration="73.00" routeLength="625.62" waitingTime="4.00" waitingCount="1" stopTime="0.00" timeLoss="19.93" rerouteNo="1" devices="tripinfo_126698_407_0 routing_126698_407_0" vType="pkw" speedFactor="0.86" vaporized=""/>
    <tripinfo id="127809_407_0" depart="25258.00" departLane="-23283579#1_0" departPos="4.40" departSpeed="0.00" departDelay="1.00" arrival="25317.00" arrivalLane="23285888#0_0" arrivalPos="109.58" arrivalSpeed="6.94" duration="59.00" routeLength="410.95" waitingTime="0.00" waitingCount="0" stopTime="0.00" timeLoss="7.26" rerouteNo="1" devices="tripinfo_127809_407_0 routing_127809_407_0" vType="pkw" speedFactor="0.88" vaporized=""/>
    <tripinfo id="138070_412_0" depart="25229.00" departLane="22917421#3_0" departPos="4.40" departSpeed="0.00" departDelay="0.00" arrival="25320.00" arrivalLane="186623965#17_0" arrivalPos="143.63" arrivalSpeed="13.35" duration="91.00" routeLength="257.42" waitingTime="59.00" waitingCount="1" stopTime="0.00" timeLoss="67.21" rerouteNo="0" devices="tripinfo_138070_412_0 routing_138070_412_0" vType="pkw" speedFactor="1.00" vaporized=""/>
    <tripinfo id="153496_420_0" depart="25232.00" departLane="22917421#3_0" departPos="4.40" departSpeed="0.00" departDelay="0.00" arrival="25321.00" arrivalLane="186623965#17_0" arrivalPos="143.63" arrivalSpeed="14.17" duration="89.00" routeLength="257.42" waitingTime="59.00" waitingCount="1" stopTime="0.00" timeLoss="66.42" rerouteNo="0" devices="tripinfo_153496_420_0 routing_153496_420_0" vType="pkw" speedFactor="1.03" vaporized=""/>
    <tripinfo id="121484_406_0" depart="25268.00" departLane="-23283579#1_0" departPos="4.40" departSpeed="0.00" departDelay="0.00" arrival="25329.00" arrivalLane="133081987#3_0" arrivalPos="99.94" arrivalSpeed="11.02" duration="61.00" routeLength="434.85" waitingTime="12.00" waitingCount="1" stopTime="0.00" timeLoss="24.42" rerouteNo="1" devices="tripinfo_121484_406_0 routing_121484_406_0" vType="pkw" speedFactor="0.86" vaporized=""/>
    <tripinfo id="76230_386_0" depart="25204.00" departLane="-23283579#1_0" departPos="4.40" departSpeed="0.00" departDelay="0.00" arrival="25330.00" arrivalLane="297047309#0_0" arrivalPos="91.17" arrivalSpeed="13.48" duration="126.00" routeLength="656.20" waitingTime="47.00" waitingCount="1" stopTime="0.00" timeLoss="60.61" rerouteNo="1" devices="tripinfo_76230_386_0 routing_76230_386_0" vType="pkw" speedFactor="1.02" vaporized=""/>
    <tripinfo id="110248_401_0" depart="25206.00" departLane="-23283579#1_0" departPos="4.40" departSpeed="0.00" departDelay="0.00" arrival="25332.00" arrivalLane="297047309#0_0" arrivalPos="91.17" arrivalSpeed="11.49" duration="126.00" routeLength="656.20" waitingTime="39.00" waitingCount="1" stopTime="0.00" timeLoss="53.42" rerouteNo="1" devices="tripinfo_110248_401_0 routing_110248_401_0" vType="pkw" speedFactor="0.90" vaporized=""/>
    <tripinfo id="156485_420_0" depart="25205.00" departLane="22959552#0_0" departPos="4.40" departSpeed="0.00" departDelay="0.00" arrival="25337.00" arrivalLane="28675510#7_0" arrivalPos="257.94" arrivalSpeed="13.09" duration="132.00" routeLength="1112.54" waitingTime="15.00" waitingCount="1" stopTime="0.00" timeLoss="29.38" rerouteNo="1" devices="tripinfo_156485_420_0 routing_156485_420_0" vType="pkw" speedFactor="1.01" vaporized=""/>
    <tripinfo id="155353_420_0" depart="25234.00" departLane="22917421#3_0" departPos="4.40" departSpeed="0.00" departDelay="0.00" arrival="25337.00" arrivalLane="186623965#17_0" arrivalPos="143.63" arrivalSpeed="16.10" duration="103.00" routeLength="257.42" waitingTime="71.00" waitingCount="2" stopTime="0.00" timeLoss="82.14" rerouteNo="0" devices="tripinfo_155353_420_0 routing_155353_420_0" vType="pkw" speedFactor="1.17" vaporized=""/>
    <tripinfo id="166776_424_0" depart="25208.00" departLane="-28675510#11_0" departPos="4.40" departSpeed="0.00" departDelay="0.00" arrival="25338.00" arrivalLane="-186623965#14_0" arrivalPos="159.69" arrivalSpeed="13.90" duration="130.00" routeLength="1202.17" waitingTime="1.00" waitingCount="1" stopTime="0.00" timeLoss="23.78" rerouteNo="1" devices="tripinfo_166776_424_0 routing_166776_424_0" vType="pkw" speedFactor="1.06" vaporized=""/>
    <tripinfo id="166162_424_0" depart="25233.00" departLane="22959550#0_0" departPos="4.40" departSpeed="0.00" departDelay="0.00" arrival="25340.00" arrivalLane="28675510#7_0" arrivalPos="257.94" arrivalSpeed="12.67" duration="107.00" routeLength="903.30" waitingTime="1.00" waitingCount="1" stopTime="0.00" timeLoss="16.59" rerouteNo="1" devices="tripinfo_166162_424_0 routing_166162_424_0" vType="pkw" speedFactor="0.93" vaporized=""/>
    <tripinfo id="118788_405_0" depart="25247.00" departLane="22917421#3_0" departPos="4.40" departSpeed="0.00" departDelay="0.00" arrival="25341.00" arrivalLane="186623965#17_0" arrivalPos="143.63" arrivalSpeed="16.84" duration="94.00" routeLength="257.42" waitingTime="57.00" waitingCount="2" stopTime="0.00" timeLoss="74.27" rerouteNo="0" devices="tripinfo_118788_405_0 routing_118788_405_0" vType="pkw" speedFactor="1.22" vaporized=""/>
    <tripinfo id="146152_416_0" depart="25210.00" departLane="25166682#0_0" departPos="4.40" departSpeed="0.00" departDelay="0.00" arrival="25342.00" arrivalLane="28675510#7_0" arrivalPos="257.94" arrivalSpeed="15.10" duration="132.00" routeLength="1219.50" waitingTime="1.00" waitingCount="1" stopTime="0.00" timeLoss="37.42" rerouteNo="1" devices="tripinfo_146152_416_0 routing_146152_416_0" vType="pkw" speedFactor="1.14" vaporized=""/>
    <tripinfo id="91556_392_0" depart="25270.00" departLane="-23283579#1_0" departPos="4.40" departSpeed="0.00" departDelay="0.00" arrival="25342.00" arrivalLane="23840972_0" arrivalPos="97.66" arrivalSpeed="8.10" duration="72.00" routeLength="525.30" waitingTime="12.00" waitingCount="2" stopTime="0.00" timeLoss="24.55" rerouteNo="1" devices="tripinfo_91556_392_0 routing_91556_392_0" vType="pkw" speedFactor="0.98" vaporized=""/>
    <tripinfo id="144617_416_0" depart="25256.00" departLane="22917421#3_0" departPos="4.40" departSpeed="0.00" departDelay="0.00" arrival="25343.00" arrivalLane="186623965#17_0" arrivalPos="143.63" arrivalSpeed="14.56" duration="87.00" routeLength="257.42" waitingTime="51.00" waitingCount="2" stopTime="0.00" timeLoss="65.95" rerouteNo="0" devices="tripinfo_144617_416_0 routing_144617_416_0" vType="pkw" speedFactor="1.11" vaporized=""/>
    <tripinfo id="171184_426_0" depart="25326.00" departLane="133081987#0_0" departPos="4.40" departSpeed="0.00" departDelay="0.00" arrival="25344.00" arrivalLane="23283436_0" arrivalPos="65.76" arrivalSpeed="13.60" duration="18.00" routeLength="154.99" waitingTime="0.00" waitingCount="0" stopTime="0.00" timeLoss="5.74" rerouteNo="0" devices="tripinfo_171184_426_0 routing_171184_426_0" vType="pkw" speedFactor="0.98" vaporized=""/>
    <tripinfo id="161216_421_0" depart="25251.00" departLane="-186623965#18_0" departPos="4.40" departSpeed="0.00" departDelay="3.00" arrival="25346.00" arrivalLane="42925825#0_0" arrivalPos="254.17" arrivalSpeed="13.03" duration="95.00" routeLength="625.62" waitingTime="31.00" waitingCount="1" stopTime="0.00" timeLoss="49.02" rerouteNo="1" devices="tripinfo_161216_421_0 routing_161216_421_0" vType="pkw" speedFactor="1.00" vaporized=""/>
    <tripinfo id="162497_421_0" depart="25273.00" departLane="22917421#3_0" departPos="4.40" departSpeed="0.00" departDelay="0.00" arrival="25346.00" arrivalLane="186623965#17_0" arrivalPos="143.63" arrivalSpeed="14.27" duration="73.00" routeLength="257.42" waitingTime="34.00" waitingCount="2" stopTime="0.00" timeLoss="50.33" rerouteNo="0" devices="tripinfo_162497_421_0 routing_162497_421_0" vType="pkw" speedFactor="1.05" vaporized=""/>
    <tripinfo id="145512_416_0" depart="25308.00" departLane="22917421#3_0" departPos="4.40" departSpeed="0.00" departDelay="0.00" arrival="25348.00" arrivalLane="186623965#17_0" arrivalPos="143.63" arrivalSpeed="13.80" duration="40.00" routeLength="257.42" waitingTime="5.00" waitingCount="1" stopTime="0.00" timeLoss="17.93" rerouteNo="0" devices="tripinfo_145512_416_0 routing_145512_416_0" vType="pkw" speedFactor="1.08" vaporized=""/>
    <tripinfo id="162890_422_0" depart="25264.00" departLane="8716807#1_0" departPos="4.40" departSpeed="0.00" departDelay="0.00" arrival="25355.00" arrivalLane="28675510#7_0" arrivalPos="257.94" arrivalSpeed="15.04" duration="91.00" routeLength="973.61" waitingTime="3.00" waitingCount="1" stopTime="0.00" timeLoss="16.10" rerouteNo="1" devices="tripinfo_162890_422_0 routing_162890_422_0" vType="pkw" speedFactor="1.16" vaporized=""/>
    <tripinfo id="174787_427_0" depart="25287.00" departLane="22959550#3_0" departPos="4.40" departSpeed="0.00" departDelay="0.00" arrival="25357.00" arrivalLane="28675510#7_0" arrivalPos="257.94" arrivalSpeed="14.47" duration="70.00" routeLength="757.45" waitingTime="0.00" waitingCount="0" stopTime="0.00" timeLoss="9.19" rerouteNo="1" devices="tripinfo_174787_427_0 routing_174787_427_0" vType="pkw" speedFactor="1.11" vaporized=""/>
    <tripinfo id="163043_422_0" depart="25215.00" departLane="-28675510#11_0" departPos="4.40" departSpeed="0.00" departDelay="3.00" arrival="25365.00" arrivalLane="8716827#0_0" arrivalPos="109.12" arrivalSpeed="7.13" duration="150.00" routeLength="1154.53" waitingTime="42.00" waitingCount="1" stopTime="0.00" timeLoss="55.09" rerouteNo="1" devices="tripinfo_163043_422_0 routing_163043_422_0" vType="pkw" speedFactor="0.94" vaporized=""/>
    <tripinfo id="144017_416_0" depart="25348.00" departLane="-353069169#0_0" departPos="4.40" departSpeed="0.00" departDelay="0.00" arrival="25366.00" arrivalLane="323416262_0" arrivalPos="87.54" arrivalSpeed="13.74" duration="18.00" routeLength="175.35" waitingTime="0.00" waitingCount="0" stopTime="0.00" timeLoss="5.06" rerouteNo="0" devices="tripinfo_144017_416_0 routing_144017_416_0" vType="pkw" speedFactor="1.00" vaporized=""/>
    <tripinfo id="134428_411_0" depart="25237.00" departLane="-28675510#11_0" departPos="4.40" departSpeed="0.00" departDelay="0.00" arrival="25368.00" arrivalLane="28675510#7_0" arrivalPos="257.94" arrivalSpeed="13.04" duration="131.00" routeLength="516.12" waitingTime="61.00" waitingCount="3" stopTime="0.00" timeLoss="91.95" rerouteNo="0" devices="tripinfo_134428_411_0 routing_134428_411_0" vType="pkw" speedFactor="0.97" vaporized=""/>
    <tripinfo id="129175_408_0" depart="25255.00" departLane="-23283579#1_0" departPos="4.40" departSpeed="0.00" departDelay="0.00" arrival="25372.00" arrivalLane="323450710#0_0" arrivalPos="95.59" arrivalSpeed="14.11" duration="117.00" routeLength="843.12" waitingTime="25.00" waitingCount="2" stopTime="0.00" timeLoss="45.02" rerouteNo="1" devices="tripinfo_129175_408_0 routing_129175_408_0" vType="pkw" speedFactor="1.11" vaporized=""/>
    <tripinfo id="146391_416_0" depart="25313.00" departLane="-28675510#0_0" departPos="4.40" departSpeed="0.00" departDelay="0.00" arrival="25377.00" arrivalLane="28675510#7_0" arrivalPos="257.94" arrivalSpeed="12.49" duration="64.00" routeLength="752.27" waitingTime="0.00" waitingCount="0" stopTime="0.00" timeLoss="7.25" rerouteNo="1" devices="tripinfo_146391_416_0 routing_146391_416_0" vType="pkw" speedFactor="0.97" vaporized=""/>
    <tripinfo id="140363_414_0" depart="25313.00" departLane="22917421#3_0" departPos="4.40" departSpeed="0.00" departDelay="0.00" arrival="25378.00" arrivalLane="-186623965#14_0" arrivalPos="159.69" arrivalSpeed="13.16" duration="65.00" routeLength="476.78" waitingTime="8.00" waitingCount="2" stopTime="0.00" timeLoss="26.43" rerouteNo="1" devices="tripinfo_140363_414_0 routing_140363_414_0" vType="pkw" speedFactor="1.02" vaporized=""/>
    <tripinfo id="158136_421_0" depart="25240.00" departLane="28675510#1_0" departPos="4.40" departSpeed="0.00" departDelay="0.00" arrival="25386.00" arrivalLane="323416262_0" arrivalPos="87.54" arrivalSpeed="12.70" duration="146.00" routeLength="1126.93" waitingTime="12.00" waitingCount="1" stopTime="0.00" timeLoss="34.95" rerouteNo="1" devices="tripinfo_158136_421_0 routing_158136_421_0" vType="pkw" speedFactor="0.94" vaporized=""/>
    <tripinfo id="84611_390_0" depart="25261.00" departLane="-23283579#1_0" departPos="4.40" departSpeed="0.00" departDelay="0.00" arrival="25391.00" arrivalLane="-23648008#0_0" arrivalPos="75.90" arrivalSpeed="13.13" duration="130.00" routeLength="782.02" waitingTime="35.00" waitingCount="2" stopTime="0.00" timeLoss="52.95" rerouteNo="1" devices="tripinfo_84611_390_0 routing_84611_390_0" vType="pkw" speedFactor="0.98" vaporized=""/>
    <tripinfo id="166783_424_0" depart="25349.00" departLane="22917421#3_0" departPos="4.40" departSpeed="0.00" departDelay="0.00" arrival="25391.00" arrivalLane="186623965#17_0" arrivalPos="143.63" arrivalSpeed="11.95" duration="42.00" routeLength="257.42" waitingTime="7.00" waitingCount="1" stopTime="0.00" timeLoss="15.62" rerouteNo="0" devices="tripinfo_166783_424_0 routing_166783_424_0" vType="pkw" speedFactor="0.89" vaporized=""/>
    <tripinfo id="174717_427_0" depart="25373.00" departLane="22917421#3_0" departPos="4.40" departSpeed="0.00" departDelay="0.00" arrival="25401.00" arrivalLane="186623965#17_0" arrivalPos="143.63" arrivalSpeed="11.95" duration="28.00" routeLength="257.42" waitingTime="0.00" waitingCount="0" stopTime="0.00" timeLoss="3.56" rerouteNo="0" devices="tripinfo_174717_427_0 routing_174717_427_0" vType="pkw" speedFactor="0.95" vaporized=""/>
    <tripinfo id="142307_415_0" depart="25375.00" departLane="22917421#3_0" departPos="4.40" departSpeed="0.00" departDelay="0.00" arrival="25403.00" arrivalLane="186623965#17_0" arrivalPos="143.63" arrivalSpeed="13.63" duration="28.00" routeLength="257.42" waitingTime="0.00" waitingCount="0" stopTime="0.00" timeLoss="4.52" rerouteNo="0" devices="tripinfo_142307_415_0 routing_142307_415_0" vType="pkw" speedFactor="1.00" vaporized=""/>
    <tripinfo id="134167_411_0" depart="25211.00" departLane="-23283579#1_0" departPos="4.40" departSpeed="0.00" departDelay="0.00" arrival="25407.00" arrivalLane="-186623965#14_0" arrivalPos="159.69" arrivalSpeed="14.11" duration="196.00" routeLength="1526.65" waitingTime="50.00" waitingCount="3" stopTime="0.00" timeLoss="74.97" rerouteNo="1" devices="tripinfo_134167_411_0 routing_134167_411_0" vType="pkw" speedFactor="1.06" vaporized=""/>
    <tripinfo id="160358_421_0" depart="25214.00" departLane="-23283579#1_0" departPos="4.40" departSpeed="0.00" departDelay="1.00" arrival="25409.00" arrivalLane="-186623965#14_0" arrivalPos="159.69" arrivalSpeed="15.03" duration="195.00" routeLength="1526.65" waitingTime="44.00" waitingCount="3" stopTime="0.00" timeLoss="82.69" rerouteNo="1" devices="tripinfo_160358_421_0 routing_160358_421_0" vType="pkw" speedFactor="1.15" vaporized=""/>
    <tripinfo id="164277_422_0" depart="25343.00" departLane="23285888#0_0" departPos="4.40" departSpeed="0.00" departDelay="0.00" arrival="25411.00" arrivalLane="297047309#0_0" arrivalPos="91.17" arrivalSpeed="12.28" duration="68.00" routeLength="518.80" waitingTime="0.00" waitingCount="0" stopTime="0.00" timeLoss="7.51" rerouteNo="1" devices="tripinfo_164277_422_0 routing_164277_422_0" vType="pkw" speedFactor="0.89" vaporized=""/>
    <tripinfo id="131237_409_0" depart="25228.00" departLane="-186623965#18_0" departPos="4.40" departSpeed="0.00" departDelay="0.00" arrival="25418.00" arrivalLane="297047309#0_0" arrivalPos="91.17" arrivalSpeed="16.28" duration="190.00" routeLength="1417.37" waitingTime="81.00" waitingCount="2" stopTime="0.00" timeLoss="104.96" rerouteNo="1" devices="tripinfo_131237_409_0 routing_131237_409_0" vType="pkw" speedFactor="1.21" vaporized=""/>
    <tripinfo id="124742_406_0" depart="25237.00" departLane="22917421#3_0" departPos="4.40" departSpeed="0.00" departDelay="1.00" arrival="25418.00" arrivalLane="28675493_0" arrivalPos="90.85" arrivalSpeed="12.08" duration="181.00" routeLength="1141.94" waitingTime="65.00" waitingCount="2" stopTime="0.00" timeLoss="80.98" rerouteNo="1" devices="tripinfo_124742_406_0 routing_124742_406_0" vType="pkw" speedFactor="0.88" vaporized=""/>
    <tripinfo id="163025_422_0" depart="25246.00" departLane="-28675510#11_0" departPos="4.40" departSpeed="0.00" departDelay="0.00" arrival="25421.00" arrivalLane="8716807#1_0" arrivalPos="110.75" arrivalSpeed="7.64" duration="175.00" routeLength="862.02" waitingTime="54.00" waitingCount="4" stopTime="0.00" timeLoss="95.00" rerouteNo="1" devices="tripinfo_163025_422_0 routing_163025_422_0" vType="pkw" speedFactor="0.93" vaporized=""/>
    <tripinfo id="152801_419_0" depart="25299.00" departLane="-297047307_0" departPos="4.40" departSpeed="0.00" departDelay="0.00" arrival="25422.00" arrivalLane="297047309#0_0" arrivalPos="91.17" arrivalSpeed="13.43" duration="123.00" routeLength="439.92" waitingTime="72.00" waitingCount="2" stopTime="0.00" timeLoss="90.99" rerouteNo="1" devices="tripinfo_152801_419_0 routing_152801_419_0" vType="pkw" speedFactor="1.01" vaporized=""/>
    <tripinfo id="157572_421_0" depart="25303.00" departLane="23283470#0_0" departPos="4.40" departSpeed="0.00" departDelay="0.00" arrival="25425.00" arrivalLane="323416262_0" arrivalPos="87.54" arrivalSpeed="11.47" duration="122.00" routeLength="994.79" waitingTime="0.00" waitingCount="0" stopTime="0.00" timeLoss="17.49" rerouteNo="1" devices="tripinfo_157572_421_0 routing_157572_421_0" vType="pkw" speedFactor="0.89" vaporized=""/>
    <tripinfo id="149205_417_0" depart="25338.00" departLane="8716807#1_0" departPos="4.40" departSpeed="0.00" departDelay="0.00" arrival="25427.00" arrivalLane="323416262_0" arrivalPos="87.54" arrivalSpeed="12.46" duration="89.00" routeLength="830.79" waitingTime="0.00" waitingCount="0" stopTime="0.00" timeLoss="12.56" rerouteNo="1" devices="tripinfo_149205_417_0 routing_149205_417_0" vType="pkw" speedFactor="0.96" vaporized=""/>
    <tripinfo id="139269_413_0" depart="25307.00" departLane="-23283579#1_0" departPos="4.40" departSpeed="0.00" departDelay="0.00" arrival="25429.00" arrivalLane="-297047308_0" arrivalPos="28.52" arrivalSpeed="10.45" duration="122.00" routeLength="517.28" waitingTime="36.00" waitingCount="2" stopTime="0.00" timeLoss="53.66" rerouteNo="1" devices="tripinfo_139269_413_0 routing_139269_413_0" vType="pkw" speedFactor="0.82" vaporized=""/>
    <tripinfo id="157954_421_0" depart="25388.00" departLane="22917421#3_0" departPos="4.40" departSpeed="0.00" departDelay="0.00" arrival="25429.00" arrivalLane="186623965#17_0" arrivalPos="143.63" arrivalSpeed="12.37" duration="41.00" routeLength="257.42" waitingTime="7.00" waitingCount="1" stopTime="0.00" timeLoss="14.27" rerouteNo="0" devices="tripinfo_157954_421_0 routing_157954_421_0" vType="pkw" speedFactor="0.90" vaporized=""/>