<?xml version="1.0" encoding="UTF-8"?>

<!-- generated on 12/19/21 16:02:59 by Eclipse SUMO sumo Version 1.7.0
<configuration xmlns:xsi="http://www.w3.org/2001/XMLSchema-instance" xsi:noNamespaceSchemaLocation="http://sumo.dlr.de/xsd/sumoConfiguration.xsd">

    <input>
        <net-file value="C:\Users\longs\Desktop\RESCO-main\environments\grid4x4\grid4x4.net.xml"/>
        <route-files value="C:\Users\longs\Desktop\RESCO-main\environments\grid4x4\grid4x4_26.rou.xml"/>
    </input>

    <output>
        <tripinfo-output value="C:\Users\longs\Desktop\RESCO-main\logs\IDQN-tr1-grid4x4-0-drqlong-delaydiff_pressure05\tripinfo_26.xml"/>
        <tripinfo-output.write-unfinished value="true"/>
    </output>

    <processing>
        <time-to-teleport value="-1"/>
    </processing>

    <report>
        <no-warnings value="true"/>
        <no-step-log value="true"/>
    </report>

    <traci_server>
        <remote-port value="53898"/>
    </traci_server>

    <random_number>
        <random value="true"/>
    </random_number>

</configuration>
-->

<tripinfos xmlns:xsi="http://www.w3.org/2001/XMLSchema-instance" xsi:noNamespaceSchemaLocation="http://sumo.dlr.de/xsd/tripinfo_file.xsd">
    <tripinfo id="5" depart="31.00" departLane="left3A3_0" departPos="5.10" departSpeed="0.00" departDelay="0.00" arrival="114.00" arrivalLane="A2left2_0" arrivalPos="286.40" arrivalSpeed="12.60" duration="83.00" routeLength="858.56" waitingTime="2.00" waitingCount="2" stopTime="0.00" timeLoss="18.74" rerouteNo="0" devices="tripinfo_5" vType="DEFAULT_VEHTYPE" speedFactor="0.98" vaporized=""/>
    <tripinfo id="4" depart="33.00" departLane="bottom3D0_0" departPos="5.10" departSpeed="0.00" departDelay="3.00" arrival="123.00" arrivalLane="D1right1_0" arrivalPos="286.40" arrivalSpeed="13.73" duration="90.00" routeLength="876.90" waitingTime="14.00" waitingCount="1" stopTime="0.00" timeLoss="27.79" rerouteNo="0" devices="tripinfo_4" vType="DEFAULT_VEHTYPE" speedFactor="1.03" vaporized=""/>
    <tripinfo id="2" depart="16.00" departLane="left1A1_0" departPos="5.10" departSpeed="0.00" departDelay="0.00" arrival="141.00" arrivalLane="A3left3_0" arrivalPos="286.40" arrivalSpeed="12.28" duration="125.00" routeLength="1197.66" waitingTime="14.00" waitingCount="2" stopTime="0.00" timeLoss="29.29" rerouteNo="0" devices="tripinfo_2" vType="DEFAULT_VEHTYPE" speedFactor="0.91" vaporized=""/>
    <tripinfo id="13" depart="75.00" departLane="right3D3_0" departPos="5.10" departSpeed="0.00" departDelay="0.00" arrival="168.00" arrivalLane="D2right2_0" arrivalPos="286.40" arrivalSpeed="13.55" duration="93.00" routeLength="894.86" waitingTime="21.00" waitingCount="1" stopTime="0.00" timeLoss="31.09" rerouteNo="0" devices="tripinfo_13" vType="DEFAULT_VEHTYPE" speedFactor="1.07" vaporized=""/>
    <tripinfo id="9" depart="54.00" departLane="right1D1_0" departPos="5.10" departSpeed="0.00" departDelay="0.00" arrival="189.00" arrivalLane="A1left1_0" arrivalPos="286.40" arrivalSpeed="12.75" duration="135.00" routeLength="1495.58" waitingTime="7.00" waitingCount="1" stopTime="0.00" timeLoss="26.21" rerouteNo="0" devices="tripinfo_9" vType="DEFAULT_VEHTYPE" speedFactor="1.00" vaporized=""/>
    <tripinfo id="10" depart="58.00" departLane="left0A0_0" departPos="5.10" departSpeed="0.00" departDelay="0.00" arrival="195.00" arrivalLane="D0bottom3_0" arrivalPos="286.40" arrivalSpeed="15.11" duration="137.00" routeLength="1477.24" waitingTime="14.00" waitingCount="3" stopTime="0.00" timeLoss="39.84" rerouteNo="0" devices="tripinfo_10" vType="DEFAULT_VEHTYPE" speedFactor="1.11" vaporized=""/>
    <tripinfo id="0" depart="5.00" departLane="left0A0_0" departPos="5.10" departSpeed="0.00" departDelay="0.00" arrival="201.00" arrivalLane="A3top0_0" arrivalPos="286.40" arrivalSpeed="12.11" duration="196.00" routeLength="1495.35" waitingTime="49.00" waitingCount="3" stopTime="0.00" timeLoss="75.04" rerouteNo="0" devices="tripinfo_0" vType="DEFAULT_VEHTYPE" speedFactor="0.90" vaporized=""/>
    <tripinfo id="12" depart="74.00" departLane="bottom1B0_0" departPos="5.10" departSpeed="0.00" departDelay="0.00" arrival="208.00" arrivalLane="D1right1_0" arrivalPos="286.40" arrivalSpeed="14.50" duration="134.00" routeLength="1479.94" waitingTime="14.00" waitingCount="3" stopTime="0.00" timeLoss="36.47" rerouteNo="0" devices="tripinfo_12" vType="DEFAULT_VEHTYPE" speedFactor="1.11" vaporized=""/>
    <tripinfo id="11" depart="59.00" departLane="bottom3D0_0" departPos="5.10" departSpeed="0.00" departDelay="0.00" arrival="214.00" arrivalLane="A0bottom0_0" arrivalPos="286.40" arrivalSpeed="13.71" duration="155.00" routeLength="1497.83" waitingTime="28.00" waitingCount="2" stopTime="0.00" timeLoss="47.40" rerouteNo="0" devices="tripinfo_11" vType="DEFAULT_VEHTYPE" speedFactor="1.01" vaporized=""/>
    <tripinfo id="1" depart="13.00" departLane="left2A2_0" departPos="5.10" departSpeed="0.00" departDelay="0.00" arrival="230.00" arrivalLane="D2right2_0" arrivalPos="286.40" arrivalSpeed="12.06" duration="217.00" routeLength="1495.58" waitingTime="77.00" waitingCount="4" stopTime="0.00" timeLoss="102.77" rerouteNo="0" devices="tripinfo_1" vType="DEFAULT_VEHTYPE" speedFactor="0.94" vaporized=""/>
    <tripinfo id="6" depart="41.00" departLane="top0A3_0" departPos="5.10" departSpeed="0.00" departDelay="0.00" arrival="240.00" arrivalLane="A3top0_0" arrivalPos="286.40" arrivalSpeed="12.36" duration="199.00" routeLength="1745.91" waitingTime="36.00" waitingCount="4" stopTime="0.00" timeLoss="64.98" rerouteNo="0" devices="tripinfo_6" vType="DEFAULT_VEHTYPE" speedFactor="0.95" vaporized=""/>
    <tripinfo id="8" depart="53.00" departLane="top3D3_0" departPos="5.10" departSpeed="0.00" departDelay="0.00" arrival="241.00" arrivalLane="D0bottom3_0" arrivalPos="286.40" arrivalSpeed="11.97" duration="188.00" routeLength="1495.58" waitingTime="50.00" waitingCount="3" stopTime="0.00" timeLoss="72.62" rerouteNo="0" devices="tripinfo_8" vType="DEFAULT_VEHTYPE" speedFactor="0.93" vaporized=""/>
    <tripinfo id="21" depart="161.00" departLane="right0D0_0" departPos="5.10" departSpeed="0.00" departDelay="0.00" arrival="245.00" arrivalLane="D1right1_0" arrivalPos="286.40" arrivalSpeed="12.41" duration="84.00" routeLength="858.56" waitingTime="2.00" waitingCount="2" stopTime="0.00" timeLoss="18.89" rerouteNo="0" devices="tripinfo_21" vType="DEFAULT_VEHTYPE" speedFactor="0.97" vaporized=""/>
    <tripinfo id="3" depart="30.00" departLane="bottom3D0_0" departPos="5.10" departSpeed="0.00" departDelay="0.00" arrival="261.00" arrivalLane="A3top0_0" arrivalPos="286.40" arrivalSpeed="13.35" duration="231.00" routeLength="2380.22" waitingTime="39.00" waitingCount="2" stopTime="0.00" timeLoss="62.62" rerouteNo="0" devices="tripinfo_3" vType="DEFAULT_VEHTYPE" speedFactor="1.03" vaporized=""/>
    <tripinfo id="16" depart="116.00" departLane="left2A2_0" departPos="5.10" departSpeed="0.00" departDelay="0.00" arrival="267.00" arrivalLane="C3top2_0" arrivalPos="286.40" arrivalSpeed="15.57" duration="151.00" routeLength="1495.35" waitingTime="30.00" waitingCount="3" stopTime="0.00" timeLoss="55.57" rerouteNo="0" devices="tripinfo_16" vType="DEFAULT_VEHTYPE" speedFactor="1.14" vaporized=""/>
    <tripinfo id="17" depart="124.00" departLane="top3D3_0" departPos="5.10" departSpeed="0.00" departDelay="0.00" arrival="267.00" arrivalLane="D0bottom3_0" arrivalPos="286.40" arrivalSpeed="15.58" duration="143.00" routeLength="1495.58" waitingTime="22.00" waitingCount="3" stopTime="0.00" timeLoss="48.35" rerouteNo="0" devices="tripinfo_17" vType="DEFAULT_VEHTYPE" speedFactor="1.15" vaporized=""/>
    <tripinfo id="14" depart="77.00" departLane="top1B3_0" departPos="5.10" departSpeed="0.00" departDelay="0.00" arrival="286.00" arrivalLane="A0left0_0" arrivalPos="286.40" arrivalSpeed="15.73" duration="209.00" routeLength="1780.11" waitingTime="58.00" waitingCount="5" stopTime="0.00" timeLoss="99.28" rerouteNo="0" devices="tripinfo_14" vType="DEFAULT_VEHTYPE" speedFactor="1.17" vaporized=""/>
    <tripinfo id="20" depart="156.00" departLane="right0D0_0" departPos="5.10" departSpeed="0.00" departDelay="0.00" arrival="319.00" arrivalLane="D3right3_0" arrivalPos="286.40" arrivalSpeed="15.17" duration="163.00" routeLength="1461.60" waitingTime="43.00" waitingCount="2" stopTime="0.00" timeLoss="65.22" rerouteNo="0" devices="tripinfo_20" vType="DEFAULT_VEHTYPE" speedFactor="1.10" vaporized=""/>
    <tripinfo id="34" depart="234.00" departLane="right0D0_0" departPos="5.10" departSpeed="0.00" departDelay="1.00" arrival="320.00" arrivalLane="C0bottom2_0" arrivalPos="286.40" arrivalSpeed="12.77" duration="86.00" routeLength="897.72" waitingTime="8.00" waitingCount="1" stopTime="0.00" timeLoss="19.92" rerouteNo="0" devices="tripinfo_34" vType="DEFAULT_VEHTYPE" speedFactor="1.00" vaporized=""/>
    <tripinfo id="27" depart="192.00" departLane="bottom2C0_0" departPos="5.10" departSpeed="0.00" departDelay="0.00" arrival="324.00" arrivalLane="D1right1_0" arrivalPos="286.40" arrivalSpeed="10.88" duration="132.00" routeLength="1179.77" waitingTime="13.00" waitingCount="2" stopTime="0.00" timeLoss="29.19" rerouteNo="0" devices="tripinfo_27" vType="DEFAULT_VEHTYPE" speedFactor="0.84" vaporized=""/>
    <tripinfo id="15" depart="77.00" departLane="right0D0_0" departPos="5.10" departSpeed="0.00" departDelay="0.00" arrival="328.00" arrivalLane="A1left1_0" arrivalPos="286.40" arrivalSpeed="12.53" duration="251.00" routeLength="1782.72" waitingTime="93.00" waitingCount="3" stopTime="0.00" timeLoss="119.08" rerouteNo="0" devices="tripinfo_15" vType="DEFAULT_VEHTYPE" speedFactor="0.99" vaporized=""/>
    <tripinfo id="18" depart="144.00" departLane="left3A3_0" departPos="5.10" departSpeed="0.00" departDelay="0.00" arrival="332.00" arrivalLane="A0bottom0_0" arrivalPos="286.40" arrivalSpeed="11.41" duration="188.00" routeLength="1479.94" waitingTime="36.00" waitingCount="4" stopTime="0.00" timeLoss="63.75" rerouteNo="0" devices="tripinfo_18" vType="DEFAULT_VEHTYPE" speedFactor="0.87" vaporized=""/>
    <tripinfo id="7" depart="52.00" departLane="bottom0A0_0" departPos="5.10" departSpeed="0.00" departDelay="0.00" arrival="338.00" arrivalLane="D2right2_0" arrivalPos="286.40" arrivalSpeed="14.60" duration="286.00" routeLength="2080.28" waitingTime="110.00" waitingCount="5" stopTime="0.00" timeLoss="146.48" rerouteNo="0" devices="tripinfo_7" vType="DEFAULT_VEHTYPE" speedFactor="1.08" vaporized=""/>
    <tripinfo id="19" depart="151.00" departLane="top2C3_0" departPos="5.10" departSpeed="0.00" departDelay="0.00" arrival="357.00" arrivalLane="A0left0_0" arrivalPos="286.40" arrivalSpeed="15.51" duration="206.00" routeLength="2080.28" waitingTime="46.00" waitingCount="3" stopTime="0.00" timeLoss="72.32" rerouteNo="0" devices="tripinfo_19" vType="DEFAULT_VEHTYPE" speedFactor="1.13" vaporized=""/>
    <tripinfo id="33" depart="231.00" departLane="right0D0_0" departPos="5.10" departSpeed="0.00" departDelay="0.00" arrival="360.00" arrivalLane="A0bottom0_0" arrivalPos="286.40" arrivalSpeed="14.95" duration="129.00" routeLength="1498.06" waitingTime="14.00" waitingCount="1" stopTime="0.00" timeLoss="28.37" rerouteNo="0" devices="tripinfo_33" vType="DEFAULT_VEHTYPE" speedFactor="1.09" vaporized=""/>
    <tripinfo id="37" depart="247.00" departLane="bottom1B0_0" departPos="5.10" departSpeed="0.00" departDelay="0.00" arrival="361.00" arrivalLane="A0left0_0" arrivalPos="286.40" arrivalSpeed="14.08" duration="114.00" routeLength="895.01" waitingTime="34.00" waitingCount="2" stopTime="0.00" timeLoss="49.83" rerouteNo="0" devices="tripinfo_37" vType="DEFAULT_VEHTYPE" speedFactor="1.02" vaporized=""/>
    <tripinfo id="55" depart="314.00" departLane="right3D3_0" departPos="5.10" departSpeed="0.00" departDelay="0.00" arrival="364.00" arrivalLane="D3top3_0" arrivalPos="286.40" arrivalSpeed="13.65" duration="50.00" routeLength="576.73" waitingTime="0.00" waitingCount="0" stopTime="0.00" timeLoss="7.24" rerouteNo="0" devices="tripinfo_55" vType="DEFAULT_VEHTYPE" speedFactor="0.99" vaporized=""/>
    <tripinfo id="23" depart="184.00" departLane="top1B3_0" departPos="5.10" departSpeed="0.00" departDelay="0.00" arrival="380.00" arrivalLane="D0bottom3_0" arrivalPos="286.40" arrivalSpeed="14.08" duration="196.00" routeLength="2080.05" waitingTime="19.00" waitingCount="4" stopTime="0.00" timeLoss="48.23" rerouteNo="0" devices="tripinfo_23" vType="DEFAULT_VEHTYPE" speedFactor="1.03" vaporized=""/>
    <tripinfo id="42" depart="273.00" departLane="bottom3D0_0" departPos="5.10" departSpeed="0.00" departDelay="0.00" arrival="388.00" arrivalLane="B0bottom1_0" arrivalPos="286.40" arrivalSpeed="15.19" duration="115.00" routeLength="1197.66" waitingTime="20.00" waitingCount="2" stopTime="0.00" timeLoss="36.39" rerouteNo="0" devices="tripinfo_42" vType="DEFAULT_VEHTYPE" speedFactor="1.12" vaporized=""/>
    <tripinfo id="46" depart="286.00" departLane="left2A2_0" departPos="5.10" departSpeed="0.00" departDelay="0.00" arrival="389.00" arrivalLane="A0bottom0_0" arrivalPos="286.40" arrivalSpeed="11.67" duration="103.00" routeLength="1179.77" waitingTime="0.00" waitingCount="0" stopTime="0.00" timeLoss="9.32" rerouteNo="0" devices="tripinfo_46" vType="DEFAULT_VEHTYPE" speedFactor="0.92" vaporized=""/>
    <tripinfo id="30" depart="209.00" departLane="bottom2C0_0" departPos="5.10" departSpeed="0.00" departDelay="0.00" arrival="393.00" arrivalLane="C0bottom2_0" arrivalPos="286.40" arrivalSpeed="12.17" duration="184.00" routeLength="1748.75" waitingTime="5.00" waitingCount="3" stopTime="0.00" timeLoss="38.36" rerouteNo="0" devices="tripinfo_30" vType="DEFAULT_VEHTYPE" speedFactor="0.88" vaporized=""/>
    <tripinfo id="44" depart="281.00" departLane="right0D0_0" departPos="5.10" departSpeed="0.00" departDelay="0.00" arrival="393.00" arrivalLane="D0bottom3_0" arrivalPos="286.40" arrivalSpeed="10.93" duration="112.00" routeLength="597.55" waitingTime="52.00" waitingCount="1" stopTime="0.00" timeLoss="61.70" rerouteNo="0" devices="tripinfo_44" vType="DEFAULT_VEHTYPE" speedFactor="0.87" vaporized=""/>
    <tripinfo id="52" depart="304.00" departLane="bottom3D0_0" departPos="5.10" departSpeed="0.00" departDelay="0.00" arrival="396.00" arrivalLane="D1right1_0" arrivalPos="286.40" arrivalSpeed="10.90" duration="92.00" routeLength="876.90" waitingTime="1.00" waitingCount="1" stopTime="0.00" timeLoss="12.69" rerouteNo="0" devices="tripinfo_52" vType="DEFAULT_VEHTYPE" speedFactor="0.81" vaporized=""/>
    <tripinfo id="50" depart="294.00" departLane="right0D0_0" departPos="5.10" departSpeed="0.00" departDelay="0.00" arrival="403.00" arrivalLane="D2right2_0" arrivalPos="286.40" arrivalSpeed="15.16" duration="109.00" routeLength="1161.43" waitingTime="10.00" waitingCount="3" stopTime="0.00" timeLoss="32.46" rerouteNo="0" devices="tripinfo_50" vType="DEFAULT_VEHTYPE" speedFactor="1.11" vaporized=""/>
    <tripinfo id="51" depart="299.00" departLane="bottom0A0_0" departPos="5.10" departSpeed="0.00" departDelay="0.00" arrival="418.00" arrivalLane="A2left2_0" arrivalPos="286.40" arrivalSpeed="14.17" duration="119.00" routeLength="1197.89" waitingTime="12.00" waitingCount="1" stopTime="0.00" timeLoss="36.09" rerouteNo="0" devices="tripinfo_51" vType="DEFAULT_VEHTYPE" speedFactor="1.05" vaporized=""/>
    <tripinfo id="49" depart="292.00" departLane="right3D3_0" departPos="5.10" departSpeed="0.00" departDelay="0.00" arrival="419.00" arrivalLane="D1right1_0" arrivalPos="286.40" arrivalSpeed="13.63" duration="127.00" routeLength="1197.66" waitingTime="23.00" waitingCount="2" stopTime="0.00" timeLoss="40.70" rerouteNo="0" devices="tripinfo_49" vType="DEFAULT_VEHTYPE" speedFactor="1.02" vaporized=""/>
    <tripinfo id="63" depart="362.00" departLane="top3D3_0" departPos="5.10" departSpeed="0.00" departDelay="0.00" arrival="419.00" arrivalLane="D3right3_0" arrivalPos="286.40" arrivalSpeed="10.90" duration="57.00" routeLength="597.55" waitingTime="0.00" waitingCount="0" stopTime="0.00" timeLoss="5.99" rerouteNo="0" devices="tripinfo_63" vType="DEFAULT_VEHTYPE" speedFactor="0.86" vaporized=""/>
    <tripinfo id="25" depart="190.00" departLane="top1B3_0" departPos="5.10" departSpeed="0.00" departDelay="0.00" arrival="421.00" arrivalLane="C0bottom2_0" arrivalPos="286.40" arrivalSpeed="11.65" duration="231.00" routeLength="1782.59" waitingTime="65.00" waitingCount="3" stopTime="0.00" timeLoss="90.97" rerouteNo="0" devices="tripinfo_25" vType="DEFAULT_VEHTYPE" speedFactor="0.93" vaporized=""/>
    <tripinfo id="38" depart="248.00" departLane="top3D3_0" departPos="5.10" departSpeed="0.00" departDelay="0.00" arrival="421.00" arrivalLane="C0bottom2_1" arrivalPos="286.40" arrivalSpeed="14.35" duration="173.00" routeLength="1782.72" waitingTime="19.00" waitingCount="3" stopTime="0.00" timeLoss="47.86" rerouteNo="0" devices="tripinfo_38" vType="DEFAULT_VEHTYPE" speedFactor="1.04" vaporized=""/>
    <tripinfo id="40" depart="266.00" departLane="left2A2_0" departPos="5.10" departSpeed="0.00" departDelay="0.00" arrival="422.00" arrivalLane="B3top1_0" arrivalPos="286.40" arrivalSpeed="11.54" duration="156.00" routeLength="1195.18" waitingTime="37.00" waitingCount="3" stopTime="0.00" timeLoss="59.75" rerouteNo="0" devices="tripinfo_40" vType="DEFAULT_VEHTYPE" speedFactor="0.90" vaporized=""/>
    <tripinfo id="56" depart="316.00" departLane="left2A2_0" departPos="5.10" departSpeed="0.00" departDelay="0.00" arrival="437.00" arrivalLane="A0left0_0" arrivalPos="286.40" arrivalSpeed="12.69" duration="121.00" routeLength="1161.43" waitingTime="12.00" waitingCount="2" stopTime="0.00" timeLoss="28.30" rerouteNo="0" devices="tripinfo_56" vType="DEFAULT_VEHTYPE" speedFactor="0.92" vaporized=""/>
    <tripinfo id="22" depart="177.00" departLane="bottom1B0_0" departPos="5.10" departSpeed="0.00" departDelay="0.00" arrival="446.00" arrivalLane="C3top2_0" arrivalPos="286.40" arrivalSpeed="14.93" duration="269.00" routeLength="1782.72" waitingTime="121.00" waitingCount="4" stopTime="0.00" timeLoss="153.41" rerouteNo="0" devices="tripinfo_22" vType="DEFAULT_VEHTYPE" speedFactor="1.12" vaporized=""/>
    <tripinfo id="48" depart="289.00" departLane="left0A0_0" departPos="5.10" departSpeed="0.00" departDelay="0.00" arrival="450.00" arrivalLane="A0left0_0" arrivalPos="286.40" arrivalSpeed="12.92" duration="161.00" routeLength="1745.91" waitingTime="7.00" waitingCount="2" stopTime="0.00" timeLoss="29.64" rerouteNo="0" devices="tripinfo_48" vType="DEFAULT_VEHTYPE" speedFactor="0.98" vaporized=""/>
    <tripinfo id="47" depart="288.00" departLane="left1A1_0" departPos="5.10" departSpeed="0.00" departDelay="0.00" arrival="459.00" arrivalLane="C0bottom2_0" arrivalPos="286.40" arrivalSpeed="13.58" duration="171.00" routeLength="1479.94" waitingTime="41.00" waitingCount="3" stopTime="0.00" timeLoss="67.46" rerouteNo="0" devices="tripinfo_47" vType="DEFAULT_VEHTYPE" speedFactor="1.04" vaporized=""/>
    <tripinfo id="39" depart="262.00" departLane="bottom1B0_0" departPos="5.10" departSpeed="0.00" departDelay="0.00" arrival="460.00" arrivalLane="D3top3_0" arrivalPos="286.40" arrivalSpeed="13.50" duration="198.00" routeLength="2082.76" waitingTime="15.00" waitingCount="4" stopTime="0.00" timeLoss="43.88" rerouteNo="0" devices="tripinfo_39" vType="DEFAULT_VEHTYPE" speedFactor="0.98" vaporized=""/>
    <tripinfo id="59" depart="341.00" departLane="left1A1_0" departPos="5.10" departSpeed="0.00" departDelay="0.00" arrival="460.00" arrivalLane="D1right1_0" arrivalPos="286.40" arrivalSpeed="13.22" duration="119.00" routeLength="1495.58" waitingTime="2.00" waitingCount="1" stopTime="0.00" timeLoss="14.51" rerouteNo="0" devices="tripinfo_59" vType="DEFAULT_VEHTYPE" speedFactor="1.03" vaporized=""/>
    <tripinfo id="32" depart="225.00" departLane="right3D3_0" departPos="5.10" departSpeed="0.00" departDelay="0.00" arrival="468.00" arrivalLane="B0bottom1_0" arrivalPos="286.40" arrivalSpeed="14.61" duration="243.00" routeLength="2095.69" waitingTime="83.00" waitingCount="2" stopTime="0.00" timeLoss="103.63" rerouteNo="0" devices="tripinfo_32" vType="DEFAULT_VEHTYPE" speedFactor="1.09" vaporized=""/>
    <tripinfo id="53" depart="307.00" departLane="bottom3D0_0" departPos="5.10" departSpeed="0.00" departDelay="2.00" arrival="480.00" arrivalLane="C0bottom2_0" arrivalPos="286.40" arrivalSpeed="14.62" duration="173.00" routeLength="894.86" waitingTime="100.00" waitingCount="1" stopTime="0.00" timeLoss="111.58" rerouteNo="0" devices="tripinfo_53" vType="DEFAULT_VEHTYPE" speedFactor="1.07" vaporized=""/>
    <tripinfo id="65" depart="368.00" departLane="left2A2_0" departPos="5.10" departSpeed="0.00" departDelay="0.00" arrival="486.00" arrivalLane="A0left0_0" arrivalPos="286.40" arrivalSpeed="12.62" duration="118.00" routeLength="1161.43" waitingTime="11.00" waitingCount="3" stopTime="0.00" timeLoss="32.08" rerouteNo="0" devices="tripinfo_65" vType="DEFAULT_VEHTYPE" speedFactor="0.99" vaporized=""/>
    <tripinfo id="68" depart="376.00" departLane="top2C3_0" departPos="5.10" departSpeed="0.00" departDelay="0.00" arrival="486.00" arrivalLane="A3top0_0" arrivalPos="286.40" arrivalSpeed="14.16" duration="110.00" routeLength="1161.43" waitingTime="9.00" waitingCount="2" stopTime="0.00" timeLoss="26.38" rerouteNo="0" devices="tripinfo_68" vType="DEFAULT_VEHTYPE" speedFactor="1.02" vaporized=""/>
    <tripinfo id="73" depart="399.00" departLane="top3D3_0" departPos="5.10" departSpeed="0.00" departDelay="0.00" arrival="488.00" arrivalLane="D3right3_0" arrivalPos="286.40" arrivalSpeed="14.76" duration="89.00" routeLength="597.55" waitingTime="38.00" waitingCount="1" stopTime="0.00" timeLoss="48.88" rerouteNo="0" devices="tripinfo_73" vType="DEFAULT_VEHTYPE" speedFactor="1.10" vaporized=""/>
    <tripinfo id="24" depart="187.00" departLane="bottom2C0_0" departPos="5.10" departSpeed="0.00" departDelay="0.00" arrival="498.00" arrivalLane="A3left3_0" arrivalPos="286.40" arrivalSpeed="14.04" duration="311.00" routeLength="2095.69" waitingTime="126.00" waitingCount="4" stopTime="0.00" timeLoss="164.05" rerouteNo="0" devices="tripinfo_24" vType="DEFAULT_VEHTYPE" speedFactor="1.03" vaporized=""/>
    <tripinfo id="31" depart="222.00" departLane="bottom1B0_0" departPos="5.10" departSpeed="0.00" departDelay="0.00" arrival="498.00" arrivalLane="A3left3_1" arrivalPos="286.40" arrivalSpeed="15.22" duration="276.00" routeLength="1795.52" waitingTime="128.00" waitingCount="4" stopTime="0.00" timeLoss="164.14" rerouteNo="0" devices="tripinfo_31" vType="DEFAULT_VEHTYPE" speedFactor="1.16" vaporized=""/>
    <tripinfo id="35" depart="236.00" departLane="left0A0_0" departPos="5.10" departSpeed="0.00" departDelay="0.00" arrival="510.00" arrivalLane="D2right2_0" arrivalPos="286.40" arrivalSpeed="12.75" duration="274.00" routeLength="2080.05" waitingTime="76.00" waitingCount="5" stopTime="0.00" timeLoss="112.52" rerouteNo="0" devices="tripinfo_35" vType="DEFAULT_VEHTYPE" speedFactor="0.94" vaporized=""/>
    <tripinfo id="54" depart="311.00" departLane="bottom1B0_0" departPos="5.10" departSpeed="0.00" departDelay="0.00" arrival="517.00" arrivalLane="A3top0_0" arrivalPos="286.40" arrivalSpeed="15.23" duration="206.00" routeLength="1782.59" waitingTime="53.00" waitingCount="5" stopTime="0.00" timeLoss="88.03" rerouteNo="0" devices="tripinfo_54" vType="DEFAULT_VEHTYPE" speedFactor="1.10" vaporized=""/>
    <tripinfo id="28" depart="195.00" departLane="top3D3_0" departPos="5.10" departSpeed="0.00" departDelay="0.00" arrival="520.00" arrivalLane="A0bottom0_0" arrivalPos="286.40" arrivalSpeed="12.47" duration="325.00" routeLength="2382.93" waitingTime="104.00" waitingCount="6" stopTime="0.00" timeLoss="145.24" rerouteNo="0" devices="tripinfo_28" vType="DEFAULT_VEHTYPE" speedFactor="0.96" vaporized=""/>
    <tripinfo id="29" depart="205.00" departLane="bottom0A0_0" departPos="5.10" departSpeed="0.00" departDelay="0.00" arrival="520.00" arrivalLane="D3top3_0" arrivalPos="286.40" arrivalSpeed="13.03" duration="315.00" routeLength="2382.93" waitingTime="100.00" waitingCount="4" stopTime="0.00" timeLoss="133.75" rerouteNo="0" devices="tripinfo_29" vType="DEFAULT_VEHTYPE" speedFactor="0.95" vaporized=""/>
    <tripinfo id="64" depart="366.00" departLane="bottom0A0_0" departPos="5.10" departSpeed="0.00" departDelay="0.00" arrival="520.00" arrivalLane="A0bottom0_1" arrivalPos="286.40" arrivalSpeed="14.44" duration="154.00" routeLength="1748.75" waitingTime="3.00" waitingCount="3" stopTime="0.00" timeLoss="31.18" rerouteNo="0" devices="tripinfo_64" vType="DEFAULT_VEHTYPE" speedFactor="1.04" vaporized=""/>
    <tripinfo id="70" depart="389.00" departLane="bottom2C0_0" departPos="5.10" departSpeed="0.00" departDelay="0.00" arrival="520.00" arrivalLane="A0left0_0" arrivalPos="286.40" arrivalSpeed="12.97" duration="131.00" routeLength="1195.18" waitingTime="21.00" waitingCount="2" stopTime="0.00" timeLoss="39.44" rerouteNo="0" devices="tripinfo_70" vType="DEFAULT_VEHTYPE" speedFactor="0.95" vaporized=""/>
    <tripinfo id="26" depart="190.00" departLane="top0A3_0" departPos="5.10" departSpeed="0.00" departDelay="0.00" arrival="521.00" arrivalLane="D0right0_0" arrivalPos="286.40" arrivalSpeed="11.66" duration="331.00" routeLength="2395.86" waitingTime="92.00" waitingCount="6" stopTime="0.00" timeLoss="143.03" rerouteNo="0" devices="tripinfo_26" vType="DEFAULT_VEHTYPE" speedFactor="0.92" vaporized=""/>
    <tripinfo id="81" depart="418.00" departLane="right3D3_0" departPos="5.10" departSpeed="0.00" departDelay="0.00" arrival="524.00" arrivalLane="B3top1_0" arrivalPos="286.40" arrivalSpeed="12.69" duration="106.00" routeLength="1177.07" waitingTime="1.00" waitingCount="1" stopTime="0.00" timeLoss="12.90" rerouteNo="0" devices="tripinfo_81" vType="DEFAULT_VEHTYPE" speedFactor="0.92" vaporized=""/>
    <tripinfo id="36" depart="246.00" departLane="right3D3_0" departPos="5.10" departSpeed="0.00" departDelay="0.00" arrival="530.00" arrivalLane="B0bottom1_0" arrivalPos="286.40" arrivalSpeed="12.94" duration="284.00" routeLength="2095.69" waitingTime="88.00" waitingCount="5" stopTime="0.00" timeLoss="124.29" rerouteNo="0" devices="tripinfo_36" vType="DEFAULT_VEHTYPE" speedFactor="0.95" vaporized=""/>
    <tripinfo id="84" depart="427.00" departLane="right0D0_0" departPos="5.10" departSpeed="0.00" departDelay="0.00" arrival="530.00" arrivalLane="C0bottom2_0" arrivalPos="286.40" arrivalSpeed="13.48" duration="103.00" routeLength="897.72" waitingTime="20.00" waitingCount="2" stopTime="0.00" timeLoss="35.62" rerouteNo="0" devices="tripinfo_84" vType="DEFAULT_VEHTYPE" speedFactor="0.97" vaporized=""/>
    <tripinfo id="60" depart="344.00" departLane="bottom2C0_0" departPos="5.10" departSpeed="0.00" departDelay="0.00" arrival="537.00" arrivalLane="D2right2_0" arrivalPos="286.40" arrivalSpeed="14.44" duration="193.00" routeLength="1479.94" waitingTime="64.00" waitingCount="4" stopTime="0.00" timeLoss="96.03" rerouteNo="0" devices="tripinfo_60" vType="DEFAULT_VEHTYPE" speedFactor="1.11" vaporized=""/>
    <tripinfo id="41" depart="272.00" departLane="top3D3_0" departPos="5.10" departSpeed="0.00" departDelay="0.00" arrival="544.00" arrivalLane="A0left0_0" arrivalPos="286.40" arrivalSpeed="12.56" duration="272.00" routeLength="2380.45" waitingTime="49.00" waitingCount="5" stopTime="0.00" timeLoss="90.81" rerouteNo="0" devices="tripinfo_41" vType="DEFAULT_VEHTYPE" speedFactor="0.95" vaporized=""/>
    <tripinfo id="69" depart="378.00" departLane="left3A3_0" departPos="5.10" departSpeed="0.00" departDelay="0.00" arrival="560.00" arrivalLane="A3left3_0" arrivalPos="286.40" arrivalSpeed="12.85" duration="182.00" routeLength="1748.75" waitingTime="12.00" waitingCount="5" stopTime="0.00" timeLoss="48.22" rerouteNo="0" devices="tripinfo_69" vType="DEFAULT_VEHTYPE" speedFactor="0.96" vaporized=""/>
    <tripinfo id="75" depart="401.00" departLane="bottom2C0_0" departPos="5.10" departSpeed="0.00" departDelay="0.00" arrival="562.00" arrivalLane="D1right1_0" arrivalPos="286.40" arrivalSpeed="11.92" duration="161.00" routeLength="1179.77" waitingTime="41.00" waitingCount="3" stopTime="0.00" timeLoss="62.77" rerouteNo="0" devices="tripinfo_75" vType="DEFAULT_VEHTYPE" speedFactor="0.88" vaporized=""/>
    <tripinfo id="57" depart="323.00" departLane="bottom3D0_0" departPos="5.10" departSpeed="0.00" departDelay="0.00" arrival="567.00" arrivalLane="D0bottom3_0" arrivalPos="286.40" arrivalSpeed="14.43" duration="244.00" routeLength="1745.91" waitingTime="94.00" waitingCount="4" stopTime="0.00" timeLoss="125.66" rerouteNo="0" devices="tripinfo_57" vType="DEFAULT_VEHTYPE" speedFactor="1.08" vaporized=""/>
    <tripinfo id="76" depart="405.00" departLane="right1D1_0" departPos="5.10" departSpeed="0.00" departDelay="0.00" arrival="567.00" arrivalLane="A1left1_0" arrivalPos="286.40" arrivalSpeed="15.19" duration="162.00" routeLength="1495.58" waitingTime="32.00" waitingCount="4" stopTime="0.00" timeLoss="63.44" rerouteNo="0" devices="tripinfo_76" vType="DEFAULT_VEHTYPE" speedFactor="1.09" vaporized=""/>
    <tripinfo id="62" depart="355.00" departLane="left3A3_0" departPos="5.10" departSpeed="0.00" departDelay="0.00" arrival="570.00" arrivalLane="D2right2_0" arrivalPos="286.40" arrivalSpeed="12.35" duration="215.00" routeLength="1782.72" waitingTime="48.00" waitingCount="4" stopTime="0.00" timeLoss="78.05" rerouteNo="0" devices="tripinfo_62" vType="DEFAULT_VEHTYPE" speedFactor="0.95" vaporized=""/>
    <tripinfo id="67" depart="375.00" departLane="top3D3_0" departPos="5.10" departSpeed="0.00" departDelay="0.00" arrival="572.00" arrivalLane="A3top0_0" arrivalPos="286.40" arrivalSpeed="10.42" duration="197.00" routeLength="1461.60" waitingTime="46.00" waitingCount="3" stopTime="0.00" timeLoss="69.27" rerouteNo="0" devices="tripinfo_67" vType="DEFAULT_VEHTYPE" speedFactor="0.84" vaporized=""/>