<?xml version="1.0" encoding="UTF-8"?>

<!-- generated on 12/19/21 16:30:48 by Eclipse SUMO sumo Version 1.7.0
<configuration xmlns:xsi="http://www.w3.org/2001/XMLSchema-instance" xsi:noNamespaceSchemaLocation="http://sumo.dlr.de/xsd/sumoConfiguration.xsd">

    <input>
        <net-file value="C:\Users\longs\Desktop\RESCO-main\environments\grid4x4\grid4x4.net.xml"/>
        <route-files value="C:\Users\longs\Desktop\RESCO-main\environments\grid4x4\grid4x4_56.rou.xml"/>
    </input>

    <output>
        <tripinfo-output value="C:\Users\longs\Desktop\RESCO-main\logs\IDQN-tr1-grid4x4-0-drqlong-delaydiff_pressure05\tripinfo_56.xml"/>
        <tripinfo-output.write-unfinished value="true"/>
    </output>

    <processing>
        <time-to-teleport value="-1"/>
    </processing>

    <report>
        <no-warnings value="true"/>
        <no-step-log value="true"/>
    </report>

    <traci_server>
        <remote-port value="54776"/>
    </traci_server>

    <random_number>
        <random value="true"/>
    </random_number>

</configuration>
-->

<tripinfos xmlns:xsi="http://www.w3.org/2001/XMLSchema-instance" xsi:noNamespaceSchemaLocation="http://sumo.dlr.de/xsd/tripinfo_file.xsd">
    <tripinfo id="6" depart="12.00" departLane="left1A1_0" departPos="5.10" departSpeed="0.00" departDelay="0.00" arrival="85.00" arrivalLane="A0left0_0" arrivalPos="286.40" arrivalSpeed="15.88" duration="73.00" routeLength="858.56" waitingTime="1.00" waitingCount="1" stopTime="0.00" timeLoss="18.52" rerouteNo="0" devices="tripinfo_6" vType="DEFAULT_VEHTYPE" speedFactor="1.18" vaporized=""/>
    <tripinfo id="15" depart="52.00" departLane="right2D2_0" departPos="5.10" departSpeed="0.00" departDelay="0.00" arrival="124.00" arrivalLane="D3top3_0" arrivalPos="286.40" arrivalSpeed="13.10" duration="72.00" routeLength="879.60" waitingTime="0.00" waitingCount="0" stopTime="0.00" timeLoss="7.91" rerouteNo="0" devices="tripinfo_15" vType="DEFAULT_VEHTYPE" speedFactor="1.01" vaporized=""/>
    <tripinfo id="20" depart="65.00" departLane="bottom3D0_0" departPos="5.10" departSpeed="0.00" departDelay="0.00" arrival="128.00" arrivalLane="D0right0_0" arrivalPos="286.40" arrivalSpeed="10.33" duration="63.00" routeLength="576.73" waitingTime="0.00" waitingCount="0" stopTime="0.00" timeLoss="7.20" rerouteNo="0" devices="tripinfo_20" vType="DEFAULT_VEHTYPE" speedFactor="0.76" vaporized=""/>
    <tripinfo id="19" depart="64.00" departLane="bottom2C0_0" departPos="5.10" departSpeed="0.00" departDelay="0.00" arrival="136.00" arrivalLane="D0bottom3_0" arrivalPos="286.40" arrivalSpeed="15.25" duration="72.00" routeLength="858.56" waitingTime="1.00" waitingCount="1" stopTime="0.00" timeLoss="16.16" rerouteNo="0" devices="tripinfo_19" vType="DEFAULT_VEHTYPE" speedFactor="1.14" vaporized=""/>
    <tripinfo id="1" depart="0.00" departLane="bottom0A0_0" departPos="5.10" departSpeed="0.00" departDelay="0.00" arrival="139.00" arrivalLane="A3top0_0" arrivalPos="286.40" arrivalSpeed="12.89" duration="139.00" routeLength="1495.58" waitingTime="6.00" waitingCount="3" stopTime="0.00" timeLoss="32.69" rerouteNo="0" devices="tripinfo_1" vType="DEFAULT_VEHTYPE" speedFactor="1.02" vaporized=""/>
    <tripinfo id="2" depart="4.00" departLane="top0A3_0" departPos="5.10" departSpeed="0.00" departDelay="0.00" arrival="158.00" arrivalLane="A0left0_0" arrivalPos="286.40" arrivalSpeed="12.82" duration="154.00" routeLength="1477.24" waitingTime="19.00" waitingCount="3" stopTime="0.00" timeLoss="45.10" rerouteNo="0" devices="tripinfo_2" vType="DEFAULT_VEHTYPE" speedFactor="0.98" vaporized=""/>
    <tripinfo id="0" depart="0.00" departLane="top1B3_0" departPos="5.10" departSpeed="0.00" departDelay="0.00" arrival="159.00" arrivalLane="B3top1_1" arrivalPos="286.40" arrivalSpeed="16.08" duration="159.00" routeLength="1748.75" waitingTime="17.00" waitingCount="2" stopTime="0.00" timeLoss="47.90" rerouteNo="0" devices="tripinfo_0" vType="DEFAULT_VEHTYPE" speedFactor="1.16" vaporized=""/>
    <tripinfo id="14" depart="51.00" departLane="top0A3_0" departPos="5.10" departSpeed="0.00" departDelay="0.00" arrival="166.00" arrivalLane="B3top1_0" arrivalPos="286.40" arrivalSpeed="10.27" duration="115.00" routeLength="894.86" waitingTime="18.00" waitingCount="1" stopTime="0.00" timeLoss="31.81" rerouteNo="0" devices="tripinfo_14" vType="DEFAULT_VEHTYPE" speedFactor="0.80" vaporized=""/>
    <tripinfo id="5" depart="9.00" departLane="bottom0A0_0" departPos="5.10" departSpeed="0.00" departDelay="0.00" arrival="171.00" arrivalLane="A0bottom0_0" arrivalPos="286.40" arrivalSpeed="11.93" duration="162.00" routeLength="1748.75" waitingTime="0.00" waitingCount="0" stopTime="0.00" timeLoss="24.01" rerouteNo="0" devices="tripinfo_5" vType="DEFAULT_VEHTYPE" speedFactor="0.93" vaporized=""/>
    <tripinfo id="9" depart="21.00" departLane="top2C3_0" departPos="5.10" departSpeed="0.00" departDelay="0.00" arrival="177.00" arrivalLane="C3top2_0" arrivalPos="286.40" arrivalSpeed="16.01" duration="156.00" routeLength="1748.75" waitingTime="15.00" waitingCount="3" stopTime="0.00" timeLoss="44.18" rerouteNo="0" devices="tripinfo_9" vType="DEFAULT_VEHTYPE" speedFactor="1.16" vaporized=""/>
    <tripinfo id="11" depart="36.00" departLane="left1A1_0" departPos="5.10" departSpeed="0.00" departDelay="0.00" arrival="180.00" arrivalLane="B0bottom1_0" arrivalPos="286.40" arrivalSpeed="13.36" duration="144.00" routeLength="1179.77" waitingTime="29.00" waitingCount="3" stopTime="0.00" timeLoss="54.64" rerouteNo="0" devices="tripinfo_11" vType="DEFAULT_VEHTYPE" speedFactor="0.97" vaporized=""/>
    <tripinfo id="3" depart="5.00" departLane="left1A1_0" departPos="5.10" departSpeed="0.00" departDelay="0.00" arrival="182.00" arrivalLane="B3top1_0" arrivalPos="286.40" arrivalSpeed="10.32" duration="177.00" routeLength="1495.35" waitingTime="19.00" waitingCount="3" stopTime="0.00" timeLoss="44.98" rerouteNo="0" devices="tripinfo_3" vType="DEFAULT_VEHTYPE" speedFactor="0.82" vaporized=""/>
    <tripinfo id="10" depart="26.00" departLane="right2D2_0" departPos="5.10" departSpeed="0.00" departDelay="0.00" arrival="188.00" arrivalLane="C0bottom2_0" arrivalPos="286.40" arrivalSpeed="13.51" duration="162.00" routeLength="1495.35" waitingTime="30.00" waitingCount="3" stopTime="0.00" timeLoss="57.82" rerouteNo="0" devices="tripinfo_10" vType="DEFAULT_VEHTYPE" speedFactor="1.04" vaporized=""/>
    <tripinfo id="18" depart="64.00" departLane="top2C3_0" departPos="5.10" departSpeed="0.00" departDelay="2.00" arrival="189.00" arrivalLane="C0bottom2_1" arrivalPos="286.40" arrivalSpeed="14.41" duration="125.00" routeLength="1495.58" waitingTime="6.00" waitingCount="2" stopTime="0.00" timeLoss="28.92" rerouteNo="0" devices="tripinfo_18" vType="DEFAULT_VEHTYPE" speedFactor="1.13" vaporized=""/>
    <tripinfo id="17" depart="61.00" departLane="top2C3_0" departPos="5.10" departSpeed="0.00" departDelay="0.00" arrival="196.00" arrivalLane="A2left2_0" arrivalPos="286.40" arrivalSpeed="15.41" duration="135.00" routeLength="1479.94" waitingTime="18.00" waitingCount="2" stopTime="0.00" timeLoss="42.01" rerouteNo="0" devices="tripinfo_17" vType="DEFAULT_VEHTYPE" speedFactor="1.17" vaporized=""/>
    <tripinfo id="32" depart="148.00" departLane="left0A0_0" departPos="5.10" departSpeed="0.00" departDelay="0.00" arrival="198.00" arrivalLane="A0bottom0_0" arrivalPos="286.40" arrivalSpeed="13.28" duration="50.00" routeLength="576.73" waitingTime="0.00" waitingCount="0" stopTime="0.00" timeLoss="6.98" rerouteNo="0" devices="tripinfo_32" vType="DEFAULT_VEHTYPE" speedFactor="0.99" vaporized=""/>
    <tripinfo id="8" depart="16.00" departLane="top1B3_0" departPos="5.10" departSpeed="0.00" departDelay="0.00" arrival="201.00" arrivalLane="D0right0_0" arrivalPos="286.40" arrivalSpeed="14.59" duration="185.00" routeLength="2095.69" waitingTime="14.00" waitingCount="2" stopTime="0.00" timeLoss="40.94" rerouteNo="0" devices="tripinfo_8" vType="DEFAULT_VEHTYPE" speedFactor="1.05" vaporized=""/>
    <tripinfo id="7" depart="12.00" departLane="bottom1B0_0" departPos="5.10" departSpeed="0.00" departDelay="0.00" arrival="212.00" arrivalLane="C3top2_0" arrivalPos="286.40" arrivalSpeed="12.15" duration="200.00" routeLength="1782.72" waitingTime="24.00" waitingCount="3" stopTime="0.00" timeLoss="54.01" rerouteNo="0" devices="tripinfo_7" vType="DEFAULT_VEHTYPE" speedFactor="0.89" vaporized=""/>
    <tripinfo id="27" depart="114.00" departLane="top3D3_0" departPos="5.10" departSpeed="0.00" departDelay="0.00" arrival="218.00" arrivalLane="D1right1_0" arrivalPos="286.40" arrivalSpeed="14.42" duration="104.00" routeLength="1197.89" waitingTime="9.00" waitingCount="1" stopTime="0.00" timeLoss="22.54" rerouteNo="0" devices="tripinfo_27" vType="DEFAULT_VEHTYPE" speedFactor="1.08" vaporized=""/>
    <tripinfo id="30" depart="141.00" departLane="bottom3D0_0" departPos="5.10" departSpeed="0.00" departDelay="0.00" arrival="234.00" arrivalLane="D2right2_0" arrivalPos="286.40" arrivalSpeed="13.58" duration="93.00" routeLength="1177.07" waitingTime="0.00" waitingCount="0" stopTime="0.00" timeLoss="8.95" rerouteNo="0" devices="tripinfo_30" vType="DEFAULT_VEHTYPE" speedFactor="1.02" vaporized=""/>
    <tripinfo id="25" depart="79.00" departLane="left1A1_0" departPos="5.10" departSpeed="0.00" departDelay="0.00" arrival="236.00" arrivalLane="C0bottom2_0" arrivalPos="286.40" arrivalSpeed="15.16" duration="157.00" routeLength="1479.94" waitingTime="33.00" waitingCount="4" stopTime="0.00" timeLoss="64.45" rerouteNo="0" devices="tripinfo_25" vType="DEFAULT_VEHTYPE" speedFactor="1.17" vaporized=""/>
    <tripinfo id="13" depart="41.00" departLane="right3D3_0" departPos="5.10" departSpeed="0.00" departDelay="0.00" arrival="250.00" arrivalLane="A1left1_0" arrivalPos="286.40" arrivalSpeed="13.53" duration="209.00" routeLength="2080.05" waitingTime="28.00" waitingCount="3" stopTime="0.00" timeLoss="64.41" rerouteNo="0" devices="tripinfo_13" vType="DEFAULT_VEHTYPE" speedFactor="1.05" vaporized=""/>
    <tripinfo id="38" depart="182.00" departLane="right0D0_0" departPos="5.10" departSpeed="0.00" departDelay="0.00" arrival="251.00" arrivalLane="D0bottom3_0" arrivalPos="286.40" arrivalSpeed="12.87" duration="69.00" routeLength="597.55" waitingTime="12.00" waitingCount="1" stopTime="0.00" timeLoss="22.73" rerouteNo="0" devices="tripinfo_38" vType="DEFAULT_VEHTYPE" speedFactor="0.95" vaporized=""/>
    <tripinfo id="37" depart="179.00" departLane="left1A1_0" departPos="5.10" departSpeed="0.00" departDelay="0.00" arrival="253.00" arrivalLane="A0bottom0_0" arrivalPos="286.40" arrivalSpeed="13.31" duration="74.00" routeLength="879.60" waitingTime="1.00" waitingCount="1" stopTime="0.00" timeLoss="12.51" rerouteNo="0" devices="tripinfo_37" vType="DEFAULT_VEHTYPE" speedFactor="1.05" vaporized=""/>
    <tripinfo id="36" depart="179.00" departLane="left3A3_0" departPos="5.10" departSpeed="0.00" departDelay="0.00" arrival="258.00" arrivalLane="A2left2_0" arrivalPos="286.40" arrivalSpeed="13.83" duration="79.00" routeLength="858.56" waitingTime="2.00" waitingCount="2" stopTime="0.00" timeLoss="19.38" rerouteNo="0" devices="tripinfo_36" vType="DEFAULT_VEHTYPE" speedFactor="1.06" vaporized=""/>
    <tripinfo id="23" depart="77.00" departLane="right0D0_0" departPos="5.10" departSpeed="0.00" departDelay="0.00" arrival="261.00" arrivalLane="D0right0_0" arrivalPos="286.40" arrivalSpeed="12.61" duration="184.00" routeLength="1748.75" waitingTime="14.00" waitingCount="4" stopTime="0.00" timeLoss="48.92" rerouteNo="0" devices="tripinfo_23" vType="DEFAULT_VEHTYPE" speedFactor="0.96" vaporized=""/>
    <tripinfo id="24" depart="79.00" departLane="bottom1B0_0" departPos="5.10" departSpeed="0.00" departDelay="0.00" arrival="267.00" arrivalLane="A2left2_0" arrivalPos="286.40" arrivalSpeed="14.95" duration="188.00" routeLength="1495.35" waitingTime="52.00" waitingCount="4" stopTime="0.00" timeLoss="91.53" rerouteNo="0" devices="tripinfo_24" vType="DEFAULT_VEHTYPE" speedFactor="1.13" vaporized=""/>
    <tripinfo id="12" depart="39.00" departLane="bottom3D0_0" departPos="5.10" departSpeed="0.00" departDelay="0.00" arrival="278.00" arrivalLane="A3top0_0" arrivalPos="286.40" arrivalSpeed="14.21" duration="239.00" routeLength="2380.22" waitingTime="34.00" waitingCount="5" stopTime="0.00" timeLoss="75.63" rerouteNo="0" devices="tripinfo_12" vType="DEFAULT_VEHTYPE" speedFactor="1.06" vaporized=""/>
    <tripinfo id="26" depart="99.00" departLane="left3A3_0" departPos="5.10" departSpeed="0.00" departDelay="0.00" arrival="280.00" arrivalLane="B0bottom1_0" arrivalPos="286.40" arrivalSpeed="13.01" duration="181.00" routeLength="1780.11" waitingTime="24.00" waitingCount="3" stopTime="0.00" timeLoss="49.55" rerouteNo="0" devices="tripinfo_26" vType="DEFAULT_VEHTYPE" speedFactor="0.98" vaporized=""/>
    <tripinfo id="16" depart="60.00" departLane="right1D1_0" departPos="5.10" departSpeed="0.00" departDelay="0.00" arrival="282.00" arrivalLane="A0bottom0_0" arrivalPos="286.40" arrivalSpeed="11.88" duration="222.00" routeLength="1795.52" waitingTime="38.00" waitingCount="4" stopTime="0.00" timeLoss="73.95" rerouteNo="0" devices="tripinfo_16" vType="DEFAULT_VEHTYPE" speedFactor="0.88" vaporized=""/>
    <tripinfo id="45" depart="202.00" departLane="top3D3_0" departPos="5.10" departSpeed="0.00" departDelay="0.00" arrival="282.00" arrivalLane="C3top2_0" arrivalPos="286.40" arrivalSpeed="11.48" duration="80.00" routeLength="858.56" waitingTime="0.00" waitingCount="0" stopTime="0.00" timeLoss="10.59" rerouteNo="0" devices="tripinfo_45" vType="DEFAULT_VEHTYPE" speedFactor="0.91" vaporized=""/>
    <tripinfo id="21" depart="71.00" departLane="left1A1_0" departPos="5.10" departSpeed="0.00" departDelay="0.00" arrival="290.00" arrivalLane="D0bottom3_0" arrivalPos="286.40" arrivalSpeed="12.93" duration="219.00" routeLength="1780.11" waitingTime="52.00" waitingCount="4" stopTime="0.00" timeLoss="87.82" rerouteNo="0" devices="tripinfo_21" vType="DEFAULT_VEHTYPE" speedFactor="0.99" vaporized=""/>
    <tripinfo id="34" depart="160.00" departLane="top1B3_0" departPos="5.10" departSpeed="0.00" departDelay="0.00" arrival="298.00" arrivalLane="A1left1_0" arrivalPos="286.40" arrivalSpeed="13.41" duration="138.00" routeLength="1479.94" waitingTime="13.00" waitingCount="2" stopTime="0.00" timeLoss="35.96" rerouteNo="0" devices="tripinfo_34" vType="DEFAULT_VEHTYPE" speedFactor="1.05" vaporized=""/>
    <tripinfo id="22" depart="76.00" departLane="bottom1B0_0" departPos="5.10" departSpeed="0.00" departDelay="0.00" arrival="299.00" arrivalLane="A3left3_0" arrivalPos="286.40" arrivalSpeed="12.64" duration="223.00" routeLength="1795.52" waitingTime="52.00" waitingCount="5" stopTime="0.00" timeLoss="90.64" rerouteNo="0" devices="tripinfo_22" vType="DEFAULT_VEHTYPE" speedFactor="0.98" vaporized=""/>
    <tripinfo id="44" depart="195.00" departLane="top2C3_0" departPos="5.10" departSpeed="0.00" departDelay="0.00" arrival="300.00" arrivalLane="D3right3_0" arrivalPos="286.40" arrivalSpeed="12.73" duration="105.00" routeLength="895.01" waitingTime="18.00" waitingCount="2" stopTime="0.00" timeLoss="36.52" rerouteNo="0" devices="tripinfo_44" vType="DEFAULT_VEHTYPE" speedFactor="0.95" vaporized=""/>
    <tripinfo id="28" depart="130.00" departLane="left0A0_0" departPos="5.10" departSpeed="0.00" departDelay="0.00" arrival="301.00" arrivalLane="D0right0_0" arrivalPos="286.40" arrivalSpeed="12.57" duration="171.00" routeLength="1495.58" waitingTime="29.00" waitingCount="3" stopTime="0.00" timeLoss="53.93" rerouteNo="0" devices="tripinfo_28" vType="DEFAULT_VEHTYPE" speedFactor="0.93" vaporized=""/>
    <tripinfo id="48" depart="210.00" departLane="bottom2C0_0" departPos="5.10" departSpeed="0.00" departDelay="0.00" arrival="309.00" arrivalLane="A0left0_1" arrivalPos="286.40" arrivalSpeed="15.52" duration="99.00" routeLength="1195.18" waitingTime="7.00" waitingCount="1" stopTime="0.00" timeLoss="21.70" rerouteNo="0" devices="tripinfo_48" vType="DEFAULT_VEHTYPE" speedFactor="1.13" vaporized=""/>
    <tripinfo id="52" depart="225.00" departLane="left2A2_0" departPos="5.10" departSpeed="0.00" departDelay="0.00" arrival="309.00" arrivalLane="A3left3_0" arrivalPos="286.40" arrivalSpeed="14.37" duration="84.00" routeLength="894.86" waitingTime="12.00" waitingCount="1" stopTime="0.00" timeLoss="23.30" rerouteNo="0" devices="tripinfo_52" vType="DEFAULT_VEHTYPE" speedFactor="1.08" vaporized=""/>
    <tripinfo id="4" depart="8.00" departLane="right3D3_0" departPos="5.10" departSpeed="0.00" departDelay="0.00" arrival="312.00" arrivalLane="A0left0_0" arrivalPos="286.40" arrivalSpeed="11.38" duration="304.00" routeLength="2380.22" waitingTime="67.00" waitingCount="4" stopTime="0.00" timeLoss="104.68" rerouteNo="0" devices="tripinfo_4" vType="DEFAULT_VEHTYPE" speedFactor="0.87" vaporized=""/>
    <tripinfo id="51" depart="220.00" departLane="right2D2_0" departPos="5.10" departSpeed="0.00" departDelay="0.00" arrival="319.00" arrivalLane="D3right3_0" arrivalPos="286.40" arrivalSpeed="9.34" duration="99.00" routeLength="858.56" waitingTime="1.00" waitingCount="1" stopTime="0.00" timeLoss="15.12" rerouteNo="0" devices="tripinfo_51" vType="DEFAULT_VEHTYPE" speedFactor="0.76" vaporized=""/>
    <tripinfo id="31" depart="142.00" departLane="left2A2_0" departPos="5.10" departSpeed="0.00" departDelay="0.00" arrival="341.00" arrivalLane="D3top3_0" arrivalPos="286.40" arrivalSpeed="12.88" duration="199.00" routeLength="1795.52" waitingTime="41.00" waitingCount="4" stopTime="0.00" timeLoss="70.79" rerouteNo="0" devices="tripinfo_31" vType="DEFAULT_VEHTYPE" speedFactor="1.02" vaporized=""/>
    <tripinfo id="41" depart="189.00" departLane="right2D2_0" departPos="5.10" departSpeed="0.00" departDelay="0.00" arrival="349.00" arrivalLane="D2right2_0" arrivalPos="286.40" arrivalSpeed="15.31" duration="160.00" routeLength="1748.75" waitingTime="11.00" waitingCount="4" stopTime="0.00" timeLoss="42.99" rerouteNo="0" devices="tripinfo_41" vType="DEFAULT_VEHTYPE" speedFactor="1.10" vaporized=""/>
    <tripinfo id="46" depart="207.00" departLane="bottom3D0_0" departPos="5.10" departSpeed="0.00" departDelay="0.00" arrival="351.00" arrivalLane="D3top3_0" arrivalPos="286.40" arrivalSpeed="13.14" duration="144.00" routeLength="1495.58" waitingTime="21.00" waitingCount="2" stopTime="0.00" timeLoss="37.48" rerouteNo="0" devices="tripinfo_46" vType="DEFAULT_VEHTYPE" speedFactor="1.02" vaporized=""/>
    <tripinfo id="43" depart="193.00" departLane="right2D2_0" departPos="5.10" departSpeed="0.00" departDelay="0.00" arrival="358.00" arrivalLane="D2right2_0" arrivalPos="286.40" arrivalSpeed="13.16" duration="165.00" routeLength="1748.75" waitingTime="6.00" waitingCount="2" stopTime="0.00" timeLoss="40.96" rerouteNo="0" devices="tripinfo_43" vType="DEFAULT_VEHTYPE" speedFactor="1.04" vaporized=""/>
    <tripinfo id="33" depart="157.00" departLane="right0D0_0" departPos="5.10" departSpeed="0.00" departDelay="0.00" arrival="359.00" arrivalLane="A1left1_0" arrivalPos="286.40" arrivalSpeed="13.05" duration="202.00" routeLength="1782.72" waitingTime="29.00" waitingCount="4" stopTime="0.00" timeLoss="65.68" rerouteNo="0" devices="tripinfo_33" vType="DEFAULT_VEHTYPE" speedFactor="0.95" vaporized=""/>
    <tripinfo id="54" depart="233.00" departLane="bottom1B0_0" departPos="5.10" departSpeed="0.00" departDelay="0.00" arrival="360.00" arrivalLane="D0right0_0" arrivalPos="286.40" arrivalSpeed="12.99" duration="127.00" routeLength="1179.77" waitingTime="20.00" waitingCount="2" stopTime="0.00" timeLoss="39.73" rerouteNo="0" devices="tripinfo_54" vType="DEFAULT_VEHTYPE" speedFactor="0.98" vaporized=""/>
    <tripinfo id="50" depart="218.00" departLane="top3D3_0" departPos="5.10" departSpeed="0.00" departDelay="0.00" arrival="378.00" arrivalLane="D0bottom3_0" arrivalPos="286.40" arrivalSpeed="14.21" duration="160.00" routeLength="1495.58" waitingTime="32.00" waitingCount="3" stopTime="0.00" timeLoss="56.42" rerouteNo="0" devices="tripinfo_50" vType="DEFAULT_VEHTYPE" speedFactor="1.04" vaporized=""/>
    <tripinfo id="29" depart="136.00" departLane="right0D0_0" departPos="5.10" departSpeed="0.00" departDelay="0.00" arrival="382.00" arrivalLane="A2left2_0" arrivalPos="286.40" arrivalSpeed="12.05" duration="246.00" routeLength="2082.76" waitingTime="43.00" waitingCount="4" stopTime="0.00" timeLoss="77.97" rerouteNo="0" devices="tripinfo_29" vType="DEFAULT_VEHTYPE" speedFactor="0.90" vaporized=""/>
    <tripinfo id="59" depart="261.00" departLane="bottom2C0_0" departPos="5.10" departSpeed="0.00" departDelay="0.00" arrival="388.00" arrivalLane="A0bottom0_0" arrivalPos="286.40" arrivalSpeed="14.40" duration="127.00" routeLength="1197.66" waitingTime="27.00" waitingCount="2" stopTime="0.00" timeLoss="44.48" rerouteNo="0" devices="tripinfo_59" vType="DEFAULT_VEHTYPE" speedFactor="1.06" vaporized=""/>
    <tripinfo id="63" depart="284.00" departLane="bottom1B0_0" departPos="5.10" departSpeed="0.00" departDelay="0.00" arrival="389.00" arrivalLane="D0right0_0" arrivalPos="286.40" arrivalSpeed="13.98" duration="105.00" routeLength="1179.77" waitingTime="6.00" waitingCount="2" stopTime="0.00" timeLoss="23.48" rerouteNo="0" devices="tripinfo_63" vType="DEFAULT_VEHTYPE" speedFactor="1.05" vaporized=""/>
    <tripinfo id="47" depart="209.00" departLane="bottom0A0_0" departPos="5.10" departSpeed="0.00" departDelay="0.00" arrival="392.00" arrivalLane="D2right2_0" arrivalPos="286.40" arrivalSpeed="13.85" duration="183.00" routeLength="2080.28" waitingTime="16.00" waitingCount="3" stopTime="0.00" timeLoss="38.84" rerouteNo="0" devices="tripinfo_47" vType="DEFAULT_VEHTYPE" speedFactor="1.05" vaporized=""/>
    <tripinfo id="42" depart="190.00" departLane="top3D3_0" departPos="5.10" departSpeed="0.00" departDelay="0.00" arrival="395.00" arrivalLane="A1left1_0" arrivalPos="286.40" arrivalSpeed="12.45" duration="205.00" routeLength="2080.28" waitingTime="16.00" waitingCount="3" stopTime="0.00" timeLoss="42.66" rerouteNo="0" devices="tripinfo_42" vType="DEFAULT_VEHTYPE" speedFactor="0.93" vaporized=""/>
    <tripinfo id="60" depart="268.00" departLane="right1D1_0" departPos="5.10" departSpeed="0.00" departDelay="0.00" arrival="396.00" arrivalLane="D3top3_0" arrivalPos="286.40" arrivalSpeed="11.57" duration="128.00" routeLength="1179.77" waitingTime="20.00" waitingCount="1" stopTime="0.00" timeLoss="34.50" rerouteNo="0" devices="tripinfo_60" vType="DEFAULT_VEHTYPE" speedFactor="0.92" vaporized=""/>
    <tripinfo id="55" depart="241.00" departLane="left2A2_0" departPos="5.10" departSpeed="0.00" departDelay="0.00" arrival="404.00" arrivalLane="C0bottom2_0" arrivalPos="286.40" arrivalSpeed="13.36" duration="163.00" routeLength="1780.11" waitingTime="13.00" waitingCount="2" stopTime="0.00" timeLoss="33.00" rerouteNo="0" devices="tripinfo_55" vType="DEFAULT_VEHTYPE" speedFactor="0.99" vaporized=""/>
    <tripinfo id="58" depart="249.00" departLane="right2D2_0" departPos="5.10" departSpeed="0.00" departDelay="0.00" arrival="407.00" arrivalLane="A2left2_0" arrivalPos="286.40" arrivalSpeed="15.27" duration="158.00" routeLength="1495.58" waitingTime="35.00" waitingCount="3" stopTime="0.00" timeLoss="60.66" rerouteNo="0" devices="tripinfo_58" vType="DEFAULT_VEHTYPE" speedFactor="1.11" vaporized=""/>
    <tripinfo id="57" depart="248.00" departLane="top2C3_0" departPos="5.10" departSpeed="0.00" departDelay="0.00" arrival="409.00" arrivalLane="A2left2_0" arrivalPos="286.40" arrivalSpeed="14.52" duration="161.00" routeLength="1479.94" waitingTime="32.00" waitingCount="4" stopTime="0.00" timeLoss="64.20" rerouteNo="0" devices="tripinfo_57" vType="DEFAULT_VEHTYPE" speedFactor="1.11" vaporized=""/>
    <tripinfo id="49" depart="213.00" departLane="left1A1_0" departPos="5.10" departSpeed="0.00" departDelay="0.00" arrival="429.00" arrivalLane="D3right3_1" arrivalPos="286.40" arrivalSpeed="15.39" duration="216.00" routeLength="2080.05" waitingTime="43.00" waitingCount="5" stopTime="0.00" timeLoss="83.53" rerouteNo="0" devices="tripinfo_49" vType="DEFAULT_VEHTYPE" speedFactor="1.14" vaporized=""/>
    <tripinfo id="62" depart="280.00" departLane="left2A2_0" departPos="5.10" departSpeed="0.00" departDelay="0.00" arrival="429.00" arrivalLane="A3left3_0" arrivalPos="286.40" arrivalSpeed="12.88" duration="149.00" routeLength="894.86" waitingTime="69.00" waitingCount="2" stopTime="0.00" timeLoss="84.15" rerouteNo="0" devices="tripinfo_62" vType="DEFAULT_VEHTYPE" speedFactor="1.02" vaporized=""/>
    <tripinfo id="56" depart="245.00" departLane="bottom2C0_0" departPos="5.10" departSpeed="0.00" departDelay="0.00" arrival="430.00" arrivalLane="D3right3_0" arrivalPos="286.40" arrivalSpeed="13.10" duration="185.00" routeLength="1780.11" waitingTime="22.00" waitingCount="4" stopTime="0.00" timeLoss="50.35" rerouteNo="0" devices="tripinfo_56" vType="DEFAULT_VEHTYPE" speedFactor="0.96" vaporized=""/>
    <tripinfo id="40" depart="186.00" departLane="right1D1_0" departPos="5.10" departSpeed="0.00" departDelay="0.00" arrival="432.00" arrivalLane="A3top0_0" arrivalPos="286.40" arrivalSpeed="11.01" duration="246.00" routeLength="2080.28" waitingTime="42.00" waitingCount="4" stopTime="0.00" timeLoss="72.91" rerouteNo="0" devices="tripinfo_40" vType="DEFAULT_VEHTYPE" speedFactor="0.87" vaporized=""/>
    <tripinfo id="83" depart="357.00" departLane="top0A3_0" departPos="5.10" departSpeed="0.00" departDelay="0.00" arrival="440.00" arrivalLane="A2left2_0" arrivalPos="286.40" arrivalSpeed="13.38" duration="83.00" routeLength="876.90" waitingTime="1.00" waitingCount="1" stopTime="0.00" timeLoss="16.79" rerouteNo="0" devices="tripinfo_83" vType="DEFAULT_VEHTYPE" speedFactor="0.97" vaporized=""/>
    <tripinfo id="92" depart="377.00" departLane="bottom0A0_0" departPos="5.10" departSpeed="0.00" departDelay="0.00" arrival="453.00" arrivalLane="B0bottom1_0" arrivalPos="286.40" arrivalSpeed="13.87" duration="76.00" routeLength="858.56" waitingTime="1.00" waitingCount="1" stopTime="0.00" timeLoss="14.80" rerouteNo="0" devices="tripinfo_92" vType="DEFAULT_VEHTYPE" speedFactor="1.03" vaporized=""/>
    <tripinfo id="61" depart="269.00" departLane="top0A3_0" departPos="5.10" departSpeed="0.00" departDelay="0.00" arrival="459.00" arrivalLane="D2right2_0" arrivalPos="286.40" arrivalSpeed="14.06" duration="190.00" routeLength="1795.52" waitingTime="29.00" waitingCount="4" stopTime="0.00" timeLoss="63.53" rerouteNo="0" devices="tripinfo_61" vType="DEFAULT_VEHTYPE" speedFactor="1.03" vaporized=""/>
    <tripinfo id="70" depart="318.00" departLane="top1B3_0" departPos="5.10" departSpeed="0.00" departDelay="0.00" arrival="478.00" arrivalLane="B3top1_0" arrivalPos="286.40" arrivalSpeed="13.60" duration="160.00" routeLength="1748.75" waitingTime="3.00" waitingCount="3" stopTime="0.00" timeLoss="29.55" rerouteNo="0" devices="tripinfo_70" vType="DEFAULT_VEHTYPE" speedFactor="0.98" vaporized=""/>
    <tripinfo id="97" depart="400.00" departLane="top1B3_0" departPos="5.10" departSpeed="0.00" departDelay="0.00" arrival="478.00" arrivalLane="A3top0_0" arrivalPos="286.40" arrivalSpeed="12.76" duration="78.00" routeLength="858.56" waitingTime="1.00" waitingCount="1" stopTime="0.00" timeLoss="13.98" rerouteNo="0" devices="tripinfo_97" vType="DEFAULT_VEHTYPE" speedFactor="0.98" vaporized=""/>
    <tripinfo id="85" depart="363.00" departLane="left2A2_0" departPos="5.10" departSpeed="0.00" departDelay="0.00" arrival="480.00" arrivalLane="A3left3_0" arrivalPos="286.40" arrivalSpeed="12.37" duration="117.00" routeLength="894.86" waitingTime="34.00" waitingCount="2" stopTime="0.00" timeLoss="47.97" rerouteNo="0" devices="tripinfo_85" vType="DEFAULT_VEHTYPE" speedFactor="0.95" vaporized=""/>
    <tripinfo id="72" depart="333.00" departLane="top0A3_0" departPos="5.10" departSpeed="0.00" departDelay="0.00" arrival="483.00" arrivalLane="A1left1_0" arrivalPos="286.40" arrivalSpeed="13.63" duration="150.00" routeLength="1177.07" waitingTime="45.00" waitingCount="2" stopTime="0.00" timeLoss="67.83" rerouteNo="0" devices="tripinfo_72" vType="DEFAULT_VEHTYPE" speedFactor="1.04" vaporized=""/>
    <tripinfo id="90" depart="375.00" departLane="left0A0_0" departPos="5.10" departSpeed="0.00" departDelay="0.00" arrival="485.00" arrivalLane="B0bottom1_0" arrivalPos="286.40" arrivalSpeed="11.11" duration="110.00" routeLength="876.90" waitingTime="19.00" waitingCount="2" stopTime="0.00" timeLoss="37.05" rerouteNo="0" devices="tripinfo_90" vType="DEFAULT_VEHTYPE" speedFactor="0.88" vaporized=""/>
    <tripinfo id="75" depart="340.00" departLane="left0A0_0" departPos="5.10" departSpeed="0.00" departDelay="0.00" arrival="486.00" arrivalLane="C0bottom2_0" arrivalPos="286.40" arrivalSpeed="13.89" duration="146.00" routeLength="1177.07" waitingTime="39.00" waitingCount="3" stopTime="0.00" timeLoss="62.85" rerouteNo="0" devices="tripinfo_75" vType="DEFAULT_VEHTYPE" speedFactor="1.03" vaporized=""/>
    <tripinfo id="78" depart="346.00" departLane="left1A1_0" departPos="5.10" departSpeed="0.00" departDelay="0.00" arrival="488.00" arrivalLane="C0bottom2_0" arrivalPos="286.40" arrivalSpeed="13.23" duration="142.00" routeLength="1479.94" waitingTime="10.00" waitingCount="3" stopTime="0.00" timeLoss="36.79" rerouteNo="0" devices="tripinfo_78" vType="DEFAULT_VEHTYPE" speedFactor="1.02" vaporized=""/>
    <tripinfo id="87" depart="367.00" departLane="bottom2C0_0" departPos="5.10" departSpeed="0.00" departDelay="0.00" arrival="488.00" arrivalLane="D1right1_0" arrivalPos="286.40" arrivalSpeed="14.34" duration="121.00" routeLength="1179.77" waitingTime="21.00" waitingCount="1" stopTime="0.00" timeLoss="42.66" rerouteNo="0" devices="tripinfo_87" vType="DEFAULT_VEHTYPE" speedFactor="1.10" vaporized=""/>