<?xml version="1.0" encoding="UTF-8"?>

<!-- generated on 12/19/21 16:18:46 by Eclipse SUMO sumo Version 1.7.0
<configuration xmlns:xsi="http://www.w3.org/2001/XMLSchema-instance" xsi:noNamespaceSchemaLocation="http://sumo.dlr.de/xsd/sumoConfiguration.xsd">

    <input>
        <net-file value="C:\Users\longs\Desktop\RESCO-main\environments\grid4x4\grid4x4.net.xml"/>
        <route-files value="C:\Users\longs\Desktop\RESCO-main\environments\grid4x4\grid4x4_43.rou.xml"/>
    </input>

    <output>
        <tripinfo-output value="C:\Users\longs\Desktop\RESCO-main\logs\IDQN-tr1-grid4x4-0-drqlong-delaydiff_pressure05\tripinfo_43.xml"/>
        <tripinfo-output.write-unfinished value="true"/>
    </output>

    <processing>
        <time-to-teleport value="-1"/>
    </processing>

    <report>
        <no-warnings value="true"/>
        <no-step-log value="true"/>
    </report>

    <traci_server>
        <remote-port value="54390"/>
    </traci_server>

    <random_number>
        <random value="true"/>
    </random_number>

</configuration>
-->

<tripinfos xmlns:xsi="http://www.w3.org/2001/XMLSchema-instance" xsi:noNamespaceSchemaLocation="http://sumo.dlr.de/xsd/tripinfo_file.xsd">
    <tripinfo id="4" depart="33.00" departLane="right1D1_0" departPos="5.10" departSpeed="0.00" departDelay="0.00" arrival="125.00" arrivalLane="D0bottom3_0" arrivalPos="286.40" arrivalSpeed="12.09" duration="92.00" routeLength="895.01" waitingTime="12.00" waitingCount="1" stopTime="0.00" timeLoss="23.15" rerouteNo="0" devices="tripinfo_4" vType="DEFAULT_VEHTYPE" speedFactor="0.95" vaporized=""/>
    <tripinfo id="9" depart="46.00" departLane="right3D3_0" departPos="5.10" departSpeed="0.00" departDelay="0.00" arrival="130.00" arrivalLane="D2right2_0" arrivalPos="286.40" arrivalSpeed="12.69" duration="84.00" routeLength="894.86" waitingTime="5.00" waitingCount="1" stopTime="0.00" timeLoss="16.60" rerouteNo="0" devices="tripinfo_9" vType="DEFAULT_VEHTYPE" speedFactor="0.98" vaporized=""/>
    <tripinfo id="3" depart="18.00" departLane="bottom0A0_0" departPos="5.10" departSpeed="0.00" departDelay="0.00" arrival="158.00" arrivalLane="D0bottom3_0" arrivalPos="286.40" arrivalSpeed="14.70" duration="140.00" routeLength="1461.60" waitingTime="23.00" waitingCount="2" stopTime="0.00" timeLoss="44.99" rerouteNo="0" devices="tripinfo_3" vType="DEFAULT_VEHTYPE" speedFactor="1.13" vaporized=""/>
    <tripinfo id="0" depart="1.00" departLane="left1A1_0" departPos="5.10" departSpeed="0.00" departDelay="0.00" arrival="167.00" arrivalLane="D0bottom3_0" arrivalPos="286.40" arrivalSpeed="14.56" duration="166.00" routeLength="1780.11" waitingTime="24.00" waitingCount="3" stopTime="0.00" timeLoss="51.14" rerouteNo="0" devices="tripinfo_0" vType="DEFAULT_VEHTYPE" speedFactor="1.13" vaporized=""/>
    <tripinfo id="8" depart="41.00" departLane="right3D3_0" departPos="5.10" departSpeed="0.00" departDelay="0.00" arrival="169.00" arrivalLane="D0right0_0" arrivalPos="286.40" arrivalSpeed="14.19" duration="128.00" routeLength="1497.83" waitingTime="12.00" waitingCount="1" stopTime="0.00" timeLoss="28.09" rerouteNo="0" devices="tripinfo_8" vType="DEFAULT_VEHTYPE" speedFactor="1.10" vaporized=""/>
    <tripinfo id="6" depart="35.00" departLane="top0A3_0" departPos="5.10" departSpeed="0.00" departDelay="0.00" arrival="170.00" arrivalLane="D3top3_0" arrivalPos="286.40" arrivalSpeed="13.75" duration="135.00" routeLength="1497.83" waitingTime="12.00" waitingCount="1" stopTime="0.00" timeLoss="26.71" rerouteNo="0" devices="tripinfo_6" vType="DEFAULT_VEHTYPE" speedFactor="1.01" vaporized=""/>
    <tripinfo id="2" depart="10.00" departLane="top3D3_0" departPos="5.10" departSpeed="0.00" departDelay="0.00" arrival="173.00" arrivalLane="D3top3_0" arrivalPos="286.40" arrivalSpeed="12.76" duration="163.00" routeLength="1748.75" waitingTime="7.00" waitingCount="3" stopTime="0.00" timeLoss="34.10" rerouteNo="0" devices="tripinfo_2" vType="DEFAULT_VEHTYPE" speedFactor="1.00" vaporized=""/>
    <tripinfo id="16" depart="96.00" departLane="left3A3_0" departPos="5.10" departSpeed="0.00" departDelay="0.00" arrival="174.00" arrivalLane="A2left2_0" arrivalPos="286.40" arrivalSpeed="12.98" duration="78.00" routeLength="858.56" waitingTime="1.00" waitingCount="1" stopTime="0.00" timeLoss="11.00" rerouteNo="0" devices="tripinfo_16" vType="DEFAULT_VEHTYPE" speedFactor="0.95" vaporized=""/>
    <tripinfo id="10" depart="47.00" departLane="left2A2_0" departPos="5.10" departSpeed="0.00" departDelay="0.00" arrival="177.00" arrivalLane="B3top1_0" arrivalPos="286.40" arrivalSpeed="14.59" duration="130.00" routeLength="1195.18" waitingTime="34.00" waitingCount="2" stopTime="0.00" timeLoss="51.95" rerouteNo="0" devices="tripinfo_10" vType="DEFAULT_VEHTYPE" speedFactor="1.11" vaporized=""/>
    <tripinfo id="21" depart="116.00" departLane="bottom0A0_0" departPos="5.10" departSpeed="0.00" departDelay="0.00" arrival="177.00" arrivalLane="A0left0_0" arrivalPos="286.40" arrivalSpeed="14.96" duration="61.00" routeLength="597.55" waitingTime="11.00" waitingCount="1" stopTime="0.00" timeLoss="20.33" rerouteNo="0" devices="tripinfo_21" vType="DEFAULT_VEHTYPE" speedFactor="1.08" vaporized=""/>
    <tripinfo id="29" depart="134.00" departLane="bottom3D0_0" departPos="5.10" departSpeed="0.00" departDelay="0.00" arrival="186.00" arrivalLane="D0right0_0" arrivalPos="286.40" arrivalSpeed="13.50" duration="52.00" routeLength="576.73" waitingTime="1.00" waitingCount="1" stopTime="0.00" timeLoss="9.96" rerouteNo="0" devices="tripinfo_29" vType="DEFAULT_VEHTYPE" speedFactor="1.01" vaporized=""/>
    <tripinfo id="20" depart="107.00" departLane="top1B3_0" departPos="5.10" departSpeed="0.00" departDelay="0.00" arrival="201.00" arrivalLane="C3top2_0" arrivalPos="286.40" arrivalSpeed="12.03" duration="94.00" routeLength="894.86" waitingTime="11.00" waitingCount="1" stopTime="0.00" timeLoss="24.11" rerouteNo="0" devices="tripinfo_20" vType="DEFAULT_VEHTYPE" speedFactor="0.94" vaporized=""/>
    <tripinfo id="14" depart="69.00" departLane="bottom2C0_0" departPos="5.10" departSpeed="0.00" departDelay="0.00" arrival="205.00" arrivalLane="D3right3_0" arrivalPos="286.40" arrivalSpeed="14.76" duration="136.00" routeLength="1780.11" waitingTime="1.00" waitingCount="1" stopTime="0.00" timeLoss="17.64" rerouteNo="0" devices="tripinfo_14" vType="DEFAULT_VEHTYPE" speedFactor="1.09" vaporized=""/>
    <tripinfo id="15" depart="78.00" departLane="right1D1_0" departPos="5.10" departSpeed="0.00" departDelay="0.00" arrival="210.00" arrivalLane="C0bottom2_0" arrivalPos="286.40" arrivalSpeed="13.21" duration="132.00" routeLength="1195.18" waitingTime="32.00" waitingCount="2" stopTime="0.00" timeLoss="47.86" rerouteNo="0" devices="tripinfo_15" vType="DEFAULT_VEHTYPE" speedFactor="1.03" vaporized=""/>
    <tripinfo id="23" depart="122.00" departLane="top3D3_0" departPos="5.10" departSpeed="0.00" departDelay="0.00" arrival="210.00" arrivalLane="C3top2_0" arrivalPos="286.40" arrivalSpeed="11.55" duration="88.00" routeLength="858.56" waitingTime="2.00" waitingCount="2" stopTime="0.00" timeLoss="18.22" rerouteNo="0" devices="tripinfo_23" vType="DEFAULT_VEHTYPE" speedFactor="0.91" vaporized=""/>
    <tripinfo id="17" depart="99.00" departLane="top2C3_0" departPos="5.10" departSpeed="0.00" departDelay="0.00" arrival="236.00" arrivalLane="C0bottom2_0" arrivalPos="286.40" arrivalSpeed="15.39" duration="137.00" routeLength="1495.58" waitingTime="14.00" waitingCount="3" stopTime="0.00" timeLoss="41.11" rerouteNo="0" devices="tripinfo_17" vType="DEFAULT_VEHTYPE" speedFactor="1.12" vaporized=""/>
    <tripinfo id="1" depart="7.00" departLane="top2C3_0" departPos="5.10" departSpeed="0.00" departDelay="0.00" arrival="238.00" arrivalLane="A0left0_0" arrivalPos="286.40" arrivalSpeed="14.40" duration="231.00" routeLength="2080.28" waitingTime="57.00" waitingCount="5" stopTime="0.00" timeLoss="93.81" rerouteNo="0" devices="tripinfo_1" vType="DEFAULT_VEHTYPE" speedFactor="1.10" vaporized=""/>
    <tripinfo id="13" depart="65.00" departLane="left3A3_0" departPos="5.10" departSpeed="0.00" departDelay="0.00" arrival="238.00" arrivalLane="B0bottom1_0" arrivalPos="286.40" arrivalSpeed="13.21" duration="173.00" routeLength="1780.11" waitingTime="19.00" waitingCount="4" stopTime="0.00" timeLoss="48.72" rerouteNo="0" devices="tripinfo_13" vType="DEFAULT_VEHTYPE" speedFactor="1.04" vaporized=""/>
    <tripinfo id="11" depart="55.00" departLane="right0D0_0" departPos="5.10" departSpeed="0.00" departDelay="0.00" arrival="239.00" arrivalLane="C3top2_0" arrivalPos="286.40" arrivalSpeed="12.96" duration="184.00" routeLength="1780.11" waitingTime="28.00" waitingCount="3" stopTime="0.00" timeLoss="53.18" rerouteNo="0" devices="tripinfo_11" vType="DEFAULT_VEHTYPE" speedFactor="0.99" vaporized=""/>
    <tripinfo id="7" depart="38.00" departLane="right1D1_0" departPos="5.10" departSpeed="0.00" departDelay="0.00" arrival="241.00" arrivalLane="A0left0_0" arrivalPos="286.40" arrivalSpeed="13.79" duration="203.00" routeLength="1782.59" waitingTime="42.00" waitingCount="4" stopTime="0.00" timeLoss="75.53" rerouteNo="0" devices="tripinfo_7" vType="DEFAULT_VEHTYPE" speedFactor="1.01" vaporized=""/>
    <tripinfo id="5" depart="33.00" departLane="left2A2_0" departPos="5.10" departSpeed="0.00" departDelay="0.00" arrival="249.00" arrivalLane="D1right1_0" arrivalPos="286.40" arrivalSpeed="13.59" duration="216.00" routeLength="1782.72" waitingTime="52.00" waitingCount="5" stopTime="0.00" timeLoss="87.02" rerouteNo="0" devices="tripinfo_5" vType="DEFAULT_VEHTYPE" speedFactor="1.01" vaporized=""/>
    <tripinfo id="26" depart="126.00" departLane="bottom0A0_0" departPos="5.10" departSpeed="0.00" departDelay="0.00" arrival="253.00" arrivalLane="C0bottom2_0" arrivalPos="286.40" arrivalSpeed="10.86" duration="127.00" routeLength="1161.43" waitingTime="4.00" waitingCount="2" stopTime="0.00" timeLoss="22.26" rerouteNo="0" devices="tripinfo_26" vType="DEFAULT_VEHTYPE" speedFactor="0.82" vaporized=""/>
    <tripinfo id="32" depart="142.00" departLane="bottom3D0_0" departPos="5.10" departSpeed="0.00" departDelay="0.00" arrival="259.00" arrivalLane="B0bottom1_0" arrivalPos="286.40" arrivalSpeed="13.54" duration="117.00" routeLength="1197.66" waitingTime="11.00" waitingCount="2" stopTime="0.00" timeLoss="28.86" rerouteNo="0" devices="tripinfo_32" vType="DEFAULT_VEHTYPE" speedFactor="0.99" vaporized=""/>
    <tripinfo id="27" depart="127.00" departLane="bottom3D0_0" departPos="5.10" departSpeed="0.00" departDelay="0.00" arrival="260.00" arrivalLane="D2right2_0" arrivalPos="286.40" arrivalSpeed="13.14" duration="133.00" routeLength="1177.07" waitingTime="31.00" waitingCount="2" stopTime="0.00" timeLoss="47.91" rerouteNo="0" devices="tripinfo_27" vType="DEFAULT_VEHTYPE" speedFactor="1.01" vaporized=""/>
    <tripinfo id="48" depart="198.00" departLane="bottom3D0_0" departPos="5.10" departSpeed="0.00" departDelay="0.00" arrival="284.00" arrivalLane="D1right1_0" arrivalPos="286.40" arrivalSpeed="14.39" duration="86.00" routeLength="876.90" waitingTime="9.00" waitingCount="2" stopTime="0.00" timeLoss="24.78" rerouteNo="0" devices="tripinfo_48" vType="DEFAULT_VEHTYPE" speedFactor="1.05" vaporized=""/>
    <tripinfo id="12" depart="58.00" departLane="bottom3D0_0" departPos="5.10" departSpeed="0.00" departDelay="0.00" arrival="288.00" arrivalLane="A1left1_0" arrivalPos="286.40" arrivalSpeed="14.07" duration="230.00" routeLength="1795.52" waitingTime="68.00" waitingCount="5" stopTime="0.00" timeLoss="102.68" rerouteNo="0" devices="tripinfo_12" vType="DEFAULT_VEHTYPE" speedFactor="1.02" vaporized=""/>
    <tripinfo id="37" depart="161.00" departLane="right0D0_0" departPos="5.10" departSpeed="0.00" departDelay="0.00" arrival="296.00" arrivalLane="D2right2_0" arrivalPos="286.40" arrivalSpeed="13.54" duration="135.00" routeLength="1161.43" waitingTime="29.00" waitingCount="3" stopTime="0.00" timeLoss="48.86" rerouteNo="0" devices="tripinfo_37" vType="DEFAULT_VEHTYPE" speedFactor="0.99" vaporized=""/>
    <tripinfo id="36" depart="150.00" departLane="right1D1_0" departPos="5.10" departSpeed="0.00" departDelay="0.00" arrival="302.00" arrivalLane="D0bottom3_0" arrivalPos="286.40" arrivalSpeed="12.18" duration="152.00" routeLength="895.01" waitingTime="64.00" waitingCount="2" stopTime="0.00" timeLoss="80.20" rerouteNo="0" devices="tripinfo_36" vType="DEFAULT_VEHTYPE" speedFactor="0.92" vaporized=""/>
    <tripinfo id="30" depart="141.00" departLane="right3D3_0" departPos="5.10" departSpeed="0.00" departDelay="0.00" arrival="304.00" arrivalLane="D1right1_0" arrivalPos="286.40" arrivalSpeed="11.42" duration="163.00" routeLength="1197.66" waitingTime="36.00" waitingCount="3" stopTime="0.00" timeLoss="59.70" rerouteNo="0" devices="tripinfo_30" vType="DEFAULT_VEHTYPE" speedFactor="0.85" vaporized=""/>
    <tripinfo id="40" depart="165.00" departLane="left2A2_0" departPos="5.10" departSpeed="0.00" departDelay="1.00" arrival="305.00" arrivalLane="A2left2_0" arrivalPos="286.40" arrivalSpeed="14.81" duration="140.00" routeLength="1748.75" waitingTime="1.00" waitingCount="1" stopTime="0.00" timeLoss="26.98" rerouteNo="0" devices="tripinfo_40" vType="DEFAULT_VEHTYPE" speedFactor="1.14" vaporized=""/>
    <tripinfo id="62" depart="264.00" departLane="right0D0_0" departPos="5.10" departSpeed="0.00" departDelay="0.00" arrival="313.00" arrivalLane="D0bottom3_0" arrivalPos="286.40" arrivalSpeed="13.45" duration="49.00" routeLength="597.55" waitingTime="0.00" waitingCount="0" stopTime="0.00" timeLoss="5.18" rerouteNo="0" devices="tripinfo_62" vType="DEFAULT_VEHTYPE" speedFactor="1.01" vaporized=""/>
    <tripinfo id="45" depart="194.00" departLane="right1D1_0" departPos="5.10" departSpeed="0.00" departDelay="0.00" arrival="321.00" arrivalLane="D3top3_0" arrivalPos="286.40" arrivalSpeed="12.65" duration="127.00" routeLength="1179.77" waitingTime="17.00" waitingCount="2" stopTime="0.00" timeLoss="34.89" rerouteNo="0" devices="tripinfo_45" vType="DEFAULT_VEHTYPE" speedFactor="0.93" vaporized=""/>
    <tripinfo id="19" depart="100.00" departLane="left3A3_0" departPos="5.10" departSpeed="0.00" departDelay="0.00" arrival="322.00" arrivalLane="C0bottom2_0" arrivalPos="286.40" arrivalSpeed="12.61" duration="222.00" routeLength="2080.28" waitingTime="30.00" waitingCount="3" stopTime="0.00" timeLoss="58.18" rerouteNo="0" devices="tripinfo_19" vType="DEFAULT_VEHTYPE" speedFactor="0.92" vaporized=""/>
    <tripinfo id="18" depart="99.00" departLane="right3D3_0" departPos="5.10" departSpeed="0.00" departDelay="0.00" arrival="338.00" arrivalLane="B0bottom1_0" arrivalPos="286.40" arrivalSpeed="13.76" duration="239.00" routeLength="2095.69" waitingTime="59.00" waitingCount="5" stopTime="0.00" timeLoss="95.02" rerouteNo="0" devices="tripinfo_18" vType="DEFAULT_VEHTYPE" speedFactor="1.05" vaporized=""/>
    <tripinfo id="39" depart="163.00" departLane="left3A3_0" departPos="5.10" departSpeed="0.00" departDelay="0.00" arrival="339.00" arrivalLane="D3top3_0" arrivalPos="286.40" arrivalSpeed="13.99" duration="176.00" routeLength="1498.06" waitingTime="45.00" waitingCount="3" stopTime="0.00" timeLoss="69.60" rerouteNo="0" devices="tripinfo_39" vType="DEFAULT_VEHTYPE" speedFactor="1.02" vaporized=""/>
    <tripinfo id="33" depart="147.00" departLane="bottom2C0_0" departPos="5.10" departSpeed="0.00" departDelay="0.00" arrival="341.00" arrivalLane="D3right3_0" arrivalPos="286.40" arrivalSpeed="13.28" duration="194.00" routeLength="1780.11" waitingTime="34.00" waitingCount="4" stopTime="0.00" timeLoss="61.80" rerouteNo="0" devices="tripinfo_33" vType="DEFAULT_VEHTYPE" speedFactor="0.98" vaporized=""/>
    <tripinfo id="28" depart="130.00" departLane="left1A1_0" departPos="5.10" departSpeed="0.00" departDelay="0.00" arrival="348.00" arrivalLane="D2right2_0" arrivalPos="286.40" arrivalSpeed="13.99" duration="218.00" routeLength="1782.59" waitingTime="66.00" waitingCount="4" stopTime="0.00" timeLoss="95.41" rerouteNo="0" devices="tripinfo_28" vType="DEFAULT_VEHTYPE" speedFactor="1.06" vaporized=""/>
    <tripinfo id="35" depart="149.00" departLane="bottom1B0_0" departPos="5.10" departSpeed="0.00" departDelay="0.00" arrival="352.00" arrivalLane="D2right2_0" arrivalPos="286.40" arrivalSpeed="13.29" duration="203.00" routeLength="1780.11" waitingTime="39.00" waitingCount="4" stopTime="0.00" timeLoss="70.67" rerouteNo="0" devices="tripinfo_35" vType="DEFAULT_VEHTYPE" speedFactor="0.98" vaporized=""/>
    <tripinfo id="67" depart="272.00" departLane="bottom0A0_0" departPos="5.10" departSpeed="0.00" departDelay="0.00" arrival="355.00" arrivalLane="B0bottom1_0" arrivalPos="286.40" arrivalSpeed="12.94" duration="83.00" routeLength="858.56" waitingTime="2.00" waitingCount="2" stopTime="0.00" timeLoss="19.43" rerouteNo="0" devices="tripinfo_67" vType="DEFAULT_VEHTYPE" speedFactor="0.99" vaporized=""/>
    <tripinfo id="31" depart="141.00" departLane="top3D3_0" departPos="5.10" departSpeed="0.00" departDelay="0.00" arrival="356.00" arrivalLane="B0bottom1_1" arrivalPos="286.40" arrivalSpeed="14.22" duration="215.00" routeLength="2082.76" waitingTime="30.00" waitingCount="3" stopTime="0.00" timeLoss="69.19" rerouteNo="0" devices="tripinfo_31" vType="DEFAULT_VEHTYPE" speedFactor="1.04" vaporized=""/>
    <tripinfo id="22" depart="117.00" departLane="right0D0_0" departPos="5.10" departSpeed="0.00" departDelay="0.00" arrival="363.00" arrivalLane="A2left2_0" arrivalPos="286.40" arrivalSpeed="11.99" duration="246.00" routeLength="2082.76" waitingTime="34.00" waitingCount="5" stopTime="0.00" timeLoss="71.25" rerouteNo="0" devices="tripinfo_22" vType="DEFAULT_VEHTYPE" speedFactor="0.87" vaporized=""/>
    <tripinfo id="51" depart="220.00" departLane="left3A3_0" departPos="5.10" departSpeed="0.00" departDelay="0.00" arrival="365.00" arrivalLane="A1left1_0" arrivalPos="286.40" arrivalSpeed="11.26" duration="145.00" routeLength="1161.43" waitingTime="25.00" waitingCount="3" stopTime="0.00" timeLoss="44.79" rerouteNo="0" devices="tripinfo_51" vType="DEFAULT_VEHTYPE" speedFactor="0.85" vaporized=""/>
    <tripinfo id="43" depart="190.00" departLane="left3A3_0" departPos="5.10" departSpeed="0.00" departDelay="0.00" arrival="366.00" arrivalLane="D3right3_0" arrivalPos="286.40" arrivalSpeed="11.87" duration="176.00" routeLength="1495.58" waitingTime="34.00" waitingCount="3" stopTime="0.00" timeLoss="57.49" rerouteNo="0" devices="tripinfo_43" vType="DEFAULT_VEHTYPE" speedFactor="0.91" vaporized=""/>
    <tripinfo id="58" depart="242.00" departLane="top3D3_0" departPos="5.10" departSpeed="0.00" departDelay="1.00" arrival="368.00" arrivalLane="D1right1_0" arrivalPos="286.40" arrivalSpeed="14.22" duration="126.00" routeLength="1197.89" waitingTime="25.00" waitingCount="2" stopTime="0.00" timeLoss="44.58" rerouteNo="0" devices="tripinfo_58" vType="DEFAULT_VEHTYPE" speedFactor="1.07" vaporized=""/>
    <tripinfo id="47" depart="196.00" departLane="top2C3_0" departPos="5.10" departSpeed="0.00" departDelay="0.00" arrival="370.00" arrivalLane="C0bottom2_0" arrivalPos="286.40" arrivalSpeed="13.05" duration="174.00" routeLength="1495.58" waitingTime="39.00" waitingCount="3" stopTime="0.00" timeLoss="63.26" rerouteNo="0" devices="tripinfo_47" vType="DEFAULT_VEHTYPE" speedFactor="0.98" vaporized=""/>
    <tripinfo id="34" depart="148.00" departLane="top3D3_0" departPos="5.10" departSpeed="0.00" departDelay="0.00" arrival="371.00" arrivalLane="A2left2_0" arrivalPos="286.40" arrivalSpeed="12.29" duration="223.00" routeLength="1780.11" waitingTime="61.00" waitingCount="3" stopTime="0.00" timeLoss="86.24" rerouteNo="0" devices="tripinfo_34" vType="DEFAULT_VEHTYPE" speedFactor="0.94" vaporized=""/>
    <tripinfo id="38" depart="162.00" departLane="left2A2_0" departPos="5.10" departSpeed="0.00" departDelay="0.00" arrival="371.00" arrivalLane="D3right3_0" arrivalPos="286.40" arrivalSpeed="10.90" duration="209.00" routeLength="1782.59" waitingTime="32.00" waitingCount="3" stopTime="0.00" timeLoss="58.89" rerouteNo="0" devices="tripinfo_38" vType="DEFAULT_VEHTYPE" speedFactor="0.87" vaporized=""/>
    <tripinfo id="42" depart="178.00" departLane="right0D0_0" departPos="5.10" departSpeed="0.00" departDelay="0.00" arrival="371.00" arrivalLane="A0bottom0_0" arrivalPos="286.40" arrivalSpeed="12.60" duration="193.00" routeLength="1498.06" waitingTime="57.00" waitingCount="2" stopTime="0.00" timeLoss="77.05" rerouteNo="0" devices="tripinfo_42" vType="DEFAULT_VEHTYPE" speedFactor="0.93" vaporized=""/>
    <tripinfo id="53" depart="221.00" departLane="right1D1_0" departPos="5.10" departSpeed="0.00" departDelay="0.00" arrival="372.00" arrivalLane="D1right1_0" arrivalPos="286.40" arrivalSpeed="13.49" duration="151.00" routeLength="1748.75" waitingTime="7.00" waitingCount="1" stopTime="0.00" timeLoss="28.26" rerouteNo="0" devices="tripinfo_53" vType="DEFAULT_VEHTYPE" speedFactor="1.05" vaporized=""/>
    <tripinfo id="55" depart="225.00" departLane="top2C3_0" departPos="5.10" departSpeed="0.00" departDelay="0.00" arrival="372.00" arrivalLane="A2left2_1" arrivalPos="286.40" arrivalSpeed="12.74" duration="147.00" routeLength="1479.94" waitingTime="9.00" waitingCount="2" stopTime="0.00" timeLoss="36.14" rerouteNo="0" devices="tripinfo_55" vType="DEFAULT_VEHTYPE" speedFactor="0.97" vaporized=""/>
    <tripinfo id="41" depart="177.00" departLane="left1A1_0" departPos="5.10" departSpeed="0.00" departDelay="0.00" arrival="379.00" arrivalLane="A1left1_0" arrivalPos="286.40" arrivalSpeed="13.31" duration="202.00" routeLength="1748.75" waitingTime="36.00" waitingCount="4" stopTime="0.00" timeLoss="71.37" rerouteNo="0" devices="tripinfo_41" vType="DEFAULT_VEHTYPE" speedFactor="0.98" vaporized=""/>
    <tripinfo id="57" depart="240.00" departLane="top3D3_0" departPos="5.10" departSpeed="0.00" departDelay="0.00" arrival="387.00" arrivalLane="D3top3_0" arrivalPos="286.40" arrivalSpeed="15.00" duration="147.00" routeLength="1748.75" waitingTime="3.00" waitingCount="3" stopTime="0.00" timeLoss="27.94" rerouteNo="0" devices="tripinfo_57" vType="DEFAULT_VEHTYPE" speedFactor="1.08" vaporized=""/>
    <tripinfo id="44" depart="191.00" departLane="right1D1_0" departPos="5.10" departSpeed="0.00" departDelay="0.00" arrival="388.00" arrivalLane="A3left3_0" arrivalPos="286.40" arrivalSpeed="15.25" duration="197.00" routeLength="2082.76" waitingTime="27.00" waitingCount="4" stopTime="0.00" timeLoss="59.94" rerouteNo="0" devices="tripinfo_44" vType="DEFAULT_VEHTYPE" speedFactor="1.11" vaporized=""/>
    <tripinfo id="56" depart="239.00" departLane="bottom0A0_0" departPos="5.10" departSpeed="0.00" departDelay="0.00" arrival="390.00" arrivalLane="A3top0_0" arrivalPos="286.40" arrivalSpeed="13.42" duration="151.00" routeLength="1495.58" waitingTime="17.00" waitingCount="2" stopTime="0.00" timeLoss="40.84" rerouteNo="0" devices="tripinfo_56" vType="DEFAULT_VEHTYPE" speedFactor="0.99" vaporized=""/>
    <tripinfo id="66" depart="270.00" departLane="left1A1_0" departPos="5.10" departSpeed="0.00" departDelay="0.00" arrival="390.00" arrivalLane="A3top0_1" arrivalPos="286.40" arrivalSpeed="13.75" duration="120.00" routeLength="1195.18" waitingTime="11.00" waitingCount="2" stopTime="0.00" timeLoss="35.01" rerouteNo="0" devices="tripinfo_66" vType="DEFAULT_VEHTYPE" speedFactor="1.02" vaporized=""/>
    <tripinfo id="50" depart="217.00" departLane="top2C3_0" departPos="5.10" departSpeed="0.00" departDelay="0.00" arrival="393.00" arrivalLane="C3top2_0" arrivalPos="286.40" arrivalSpeed="11.72" duration="176.00" routeLength="1748.75" waitingTime="9.00" waitingCount="2" stopTime="0.00" timeLoss="33.21" rerouteNo="0" devices="tripinfo_50" vType="DEFAULT_VEHTYPE" speedFactor="0.90" vaporized=""/>
    <tripinfo id="61" depart="251.00" departLane="right0D0_0" departPos="5.10" departSpeed="0.00" departDelay="0.00" arrival="402.00" arrivalLane="D0right0_0" arrivalPos="286.40" arrivalSpeed="14.70" duration="151.00" routeLength="1748.75" waitingTime="10.00" waitingCount="3" stopTime="0.00" timeLoss="36.39" rerouteNo="0" devices="tripinfo_61" vType="DEFAULT_VEHTYPE" speedFactor="1.12" vaporized=""/>
    <tripinfo id="70" depart="299.00" departLane="left3A3_0" departPos="5.10" departSpeed="0.00" departDelay="0.00" arrival="406.00" arrivalLane="A1left1_0" arrivalPos="286.40" arrivalSpeed="13.77" duration="107.00" routeLength="1161.43" waitingTime="2.00" waitingCount="2" stopTime="0.00" timeLoss="22.08" rerouteNo="0" devices="tripinfo_70" vType="DEFAULT_VEHTYPE" speedFactor="1.01" vaporized=""/>
    <tripinfo id="73" depart="321.00" departLane="bottom1B0_0" departPos="5.10" departSpeed="0.00" departDelay="0.00" arrival="407.00" arrivalLane="A0left0_0" arrivalPos="286.40" arrivalSpeed="14.87" duration="86.00" routeLength="895.01" waitingTime="11.00" waitingCount="2" stopTime="0.00" timeLoss="28.86" rerouteNo="0" devices="tripinfo_73" vType="DEFAULT_VEHTYPE" speedFactor="1.14" vaporized=""/>
    <tripinfo id="25" depart="125.00" departLane="top3D3_0" departPos="5.10" departSpeed="0.00" departDelay="0.00" arrival="409.00" arrivalLane="A0bottom0_0" arrivalPos="286.40" arrivalSpeed="13.98" duration="284.00" routeLength="2382.93" waitingTime="69.00" waitingCount="7" stopTime="0.00" timeLoss="115.93" rerouteNo="0" devices="tripinfo_25" vType="DEFAULT_VEHTYPE" speedFactor="1.03" vaporized=""/>
    <tripinfo id="49" depart="203.00" departLane="bottom3D0_0" departPos="5.10" departSpeed="0.00" departDelay="0.00" arrival="411.00" arrivalLane="B3top1_0" arrivalPos="286.40" arrivalSpeed="14.70" duration="208.00" routeLength="2080.05" waitingTime="34.00" waitingCount="4" stopTime="0.00" timeLoss="66.92" rerouteNo="0" devices="tripinfo_49" vType="DEFAULT_VEHTYPE" speedFactor="1.08" vaporized=""/>
    <tripinfo id="46" depart="197.00" departLane="right1D1_0" departPos="5.10" departSpeed="0.00" departDelay="3.00" arrival="412.00" arrivalLane="B0bottom1_0" arrivalPos="286.40" arrivalSpeed="11.46" duration="215.00" routeLength="1495.35" waitingTime="60.00" waitingCount="4" stopTime="0.00" timeLoss="89.35" rerouteNo="0" devices="tripinfo_46" vType="DEFAULT_VEHTYPE" speedFactor="0.86" vaporized=""/>
    <tripinfo id="52" depart="221.00" departLane="left2A2_0" departPos="5.10" departSpeed="0.00" departDelay="0.00" arrival="412.00" arrivalLane="D3right3_0" arrivalPos="286.40" arrivalSpeed="13.24" duration="191.00" routeLength="1782.59" waitingTime="39.00" waitingCount="3" stopTime="0.00" timeLoss="65.05" rerouteNo="0" devices="tripinfo_52" vType="DEFAULT_VEHTYPE" speedFactor="1.03" vaporized=""/>
    <tripinfo id="59" depart="243.00" departLane="bottom3D0_0" departPos="5.10" departSpeed="0.00" departDelay="0.00" arrival="428.00" arrivalLane="B3top1_0" arrivalPos="286.40" arrivalSpeed="13.83" duration="185.00" routeLength="2080.05" waitingTime="18.00" waitingCount="2" stopTime="0.00" timeLoss="42.89" rerouteNo="0" devices="tripinfo_59" vType="DEFAULT_VEHTYPE" speedFactor="1.06" vaporized=""/>
    <tripinfo id="24" depart="123.00" departLane="bottom3D0_0" departPos="5.10" departSpeed="0.00" departDelay="0.00" arrival="431.00" arrivalLane="A3top0_0" arrivalPos="286.40" arrivalSpeed="13.02" duration="308.00" routeLength="2380.22" waitingTime="77.00" waitingCount="6" stopTime="0.00" timeLoss="124.79" rerouteNo="0" devices="tripinfo_24" vType="DEFAULT_VEHTYPE" speedFactor="0.95" vaporized=""/>
    <tripinfo id="68" depart="284.00" departLane="bottom0A0_0" departPos="5.10" departSpeed="0.00" departDelay="0.00" arrival="450.00" arrivalLane="B3top1_0" arrivalPos="286.40" arrivalSpeed="13.22" duration="166.00" routeLength="1782.72" waitingTime="8.00" waitingCount="3" stopTime="0.00" timeLoss="35.49" rerouteNo="0" devices="tripinfo_68" vType="DEFAULT_VEHTYPE" speedFactor="0.99" vaporized=""/>
    <tripinfo id="54" depart="225.00" departLane="right0D0_0" departPos="5.10" departSpeed="0.00" departDelay="0.00" arrival="451.00" arrivalLane="A2left2_0" arrivalPos="286.40" arrivalSpeed="13.33" duration="226.00" routeLength="2082.76" waitingTime="45.00" waitingCount="4" stopTime="0.00" timeLoss="80.07" rerouteNo="0" devices="tripinfo_54" vType="DEFAULT_VEHTYPE" speedFactor="1.04" vaporized=""/>
    <tripinfo id="69" depart="291.00" departLane="top3D3_0" departPos="5.10" departSpeed="0.00" departDelay="0.00" arrival="452.00" arrivalLane="D0right0_0" arrivalPos="286.40" arrivalSpeed="13.80" duration="161.00" routeLength="1498.06" waitingTime="32.00" waitingCount="2" stopTime="0.00" timeLoss="59.06" rerouteNo="0" devices="tripinfo_69" vType="DEFAULT_VEHTYPE" speedFactor="1.07" vaporized=""/>
    <tripinfo id="63" depart="265.00" departLane="left0A0_0" departPos="5.10" departSpeed="0.00" departDelay="0.00" arrival="453.00" arrivalLane="D1right1_0" arrivalPos="286.40" arrivalSpeed="11.46" duration="188.00" routeLength="1782.59" waitingTime="13.00" waitingCount="3" stopTime="0.00" timeLoss="34.80" rerouteNo="0" devices="tripinfo_63" vType="DEFAULT_VEHTYPE" speedFactor="0.84" vaporized=""/>
    <tripinfo id="84" depart="360.00" departLane="bottom1B0_0" departPos="5.10" departSpeed="0.00" departDelay="0.00" arrival="462.00" arrivalLane="D0bottom3_0" arrivalPos="286.40" arrivalSpeed="13.29" duration="102.00" routeLength="1161.43" waitingTime="1.00" waitingCount="1" stopTime="0.00" timeLoss="13.85" rerouteNo="0" devices="tripinfo_84" vType="DEFAULT_VEHTYPE" speedFactor="0.97" vaporized=""/>
    <tripinfo id="80" depart="350.00" departLane="top0A3_0" departPos="5.10" departSpeed="0.00" departDelay="0.00" arrival="466.00" arrivalLane="C3top2_0" arrivalPos="286.40" arrivalSpeed="16.45" duration="116.00" routeLength="1197.66" waitingTime="17.00" waitingCount="3" stopTime="0.00" timeLoss="43.23" rerouteNo="0" devices="tripinfo_80" vType="DEFAULT_VEHTYPE" speedFactor="1.20" vaporized=""/>