<?xml version="1.0" encoding="UTF-8"?>

<!-- generated on 12/19/21 16:28:01 by Eclipse SUMO sumo Version 1.7.0
<configuration xmlns:xsi="http://www.w3.org/2001/XMLSchema-instance" xsi:noNamespaceSchemaLocation="http://sumo.dlr.de/xsd/sumoConfiguration.xsd">

    <input>
        <net-file value="C:\Users\longs\Desktop\RESCO-main\environments\grid4x4\grid4x4.net.xml"/>
        <route-files value="C:\Users\longs\Desktop\RESCO-main\environments\grid4x4\grid4x4_53.rou.xml"/>
    </input>

    <output>
        <tripinfo-output value="C:\Users\longs\Desktop\RESCO-main\logs\IDQN-tr1-grid4x4-0-drqlong-delaydiff_pressure05\tripinfo_53.xml"/>
        <tripinfo-output.write-unfinished value="true"/>
    </output>

    <processing>
        <time-to-teleport value="-1"/>
    </processing>

    <report>
        <no-warnings value="true"/>
        <no-step-log value="true"/>
    </report>

    <traci_server>
        <remote-port value="54682"/>
    </traci_server>

    <random_number>
        <random value="true"/>
    </random_number>

</configuration>
-->

<tripinfos xmlns:xsi="http://www.w3.org/2001/XMLSchema-instance" xsi:noNamespaceSchemaLocation="http://sumo.dlr.de/xsd/tripinfo_file.xsd">
    <tripinfo id="12" depart="56.00" departLane="top3D3_0" departPos="5.10" departSpeed="0.00" departDelay="0.00" arrival="120.00" arrivalLane="C3top2_0" arrivalPos="286.40" arrivalSpeed="16.00" duration="64.00" routeLength="858.56" waitingTime="0.00" waitingCount="0" stopTime="0.00" timeLoss="9.09" rerouteNo="0" devices="tripinfo_12" vType="DEFAULT_VEHTYPE" speedFactor="1.16" vaporized=""/>
    <tripinfo id="1" depart="9.00" departLane="left0A0_0" departPos="5.10" departSpeed="0.00" departDelay="0.00" arrival="123.00" arrivalLane="A1left1_0" arrivalPos="286.40" arrivalSpeed="11.00" duration="114.00" routeLength="894.86" waitingTime="25.00" waitingCount="2" stopTime="0.00" timeLoss="38.95" rerouteNo="0" devices="tripinfo_1" vType="DEFAULT_VEHTYPE" speedFactor="0.88" vaporized=""/>
    <tripinfo id="8" depart="31.00" departLane="bottom2C0_0" departPos="5.10" departSpeed="0.00" departDelay="0.00" arrival="131.00" arrivalLane="D1right1_0" arrivalPos="286.40" arrivalSpeed="12.82" duration="100.00" routeLength="1179.77" waitingTime="1.00" waitingCount="1" stopTime="0.00" timeLoss="11.73" rerouteNo="0" devices="tripinfo_8" vType="DEFAULT_VEHTYPE" speedFactor="0.97" vaporized=""/>
    <tripinfo id="2" depart="9.00" departLane="bottom1B0_0" departPos="5.10" departSpeed="0.00" departDelay="0.00" arrival="148.00" arrivalLane="D0bottom3_0" arrivalPos="286.40" arrivalSpeed="10.87" duration="139.00" routeLength="1161.43" waitingTime="10.00" waitingCount="3" stopTime="0.00" timeLoss="30.61" rerouteNo="0" devices="tripinfo_2" vType="DEFAULT_VEHTYPE" speedFactor="0.79" vaporized=""/>
    <tripinfo id="7" depart="26.00" departLane="left1A1_0" departPos="5.10" departSpeed="0.00" departDelay="0.00" arrival="148.00" arrivalLane="A3left3_0" arrivalPos="286.40" arrivalSpeed="14.12" duration="122.00" routeLength="1197.66" waitingTime="19.00" waitingCount="3" stopTime="0.00" timeLoss="39.69" rerouteNo="0" devices="tripinfo_7" vType="DEFAULT_VEHTYPE" speedFactor="1.06" vaporized=""/>
    <tripinfo id="18" depart="80.00" departLane="right1D1_0" departPos="5.10" departSpeed="0.00" departDelay="0.00" arrival="154.00" arrivalLane="D2right2_0" arrivalPos="286.40" arrivalSpeed="13.00" duration="74.00" routeLength="858.56" waitingTime="0.00" waitingCount="0" stopTime="0.00" timeLoss="10.00" rerouteNo="0" devices="tripinfo_18" vType="DEFAULT_VEHTYPE" speedFactor="0.99" vaporized=""/>
    <tripinfo id="0" depart="6.00" departLane="right0D0_0" departPos="5.10" departSpeed="0.00" departDelay="0.00" arrival="180.00" arrivalLane="A0left0_0" arrivalPos="286.40" arrivalSpeed="12.28" duration="174.00" routeLength="1495.58" waitingTime="37.00" waitingCount="3" stopTime="0.00" timeLoss="59.50" rerouteNo="0" devices="tripinfo_0" vType="DEFAULT_VEHTYPE" speedFactor="0.95" vaporized=""/>
    <tripinfo id="22" depart="96.00" departLane="bottom2C0_0" departPos="5.10" departSpeed="0.00" departDelay="0.00" arrival="181.00" arrivalLane="D0bottom3_0" arrivalPos="286.40" arrivalSpeed="11.96" duration="85.00" routeLength="858.56" waitingTime="1.00" waitingCount="1" stopTime="0.00" timeLoss="12.61" rerouteNo="0" devices="tripinfo_22" vType="DEFAULT_VEHTYPE" speedFactor="0.87" vaporized=""/>
    <tripinfo id="14" depart="60.00" departLane="right2D2_0" departPos="5.10" departSpeed="0.00" departDelay="0.00" arrival="182.00" arrivalLane="C0bottom2_0" arrivalPos="286.40" arrivalSpeed="17.76" duration="122.00" routeLength="1495.35" waitingTime="19.00" waitingCount="2" stopTime="0.00" timeLoss="37.08" rerouteNo="0" devices="tripinfo_14" vType="DEFAULT_VEHTYPE" speedFactor="1.28" vaporized=""/>
    <tripinfo id="3" depart="16.00" departLane="top2C3_0" departPos="5.10" departSpeed="0.00" departDelay="0.00" arrival="197.00" arrivalLane="A1left1_0" arrivalPos="286.40" arrivalSpeed="14.78" duration="181.00" routeLength="1780.11" waitingTime="38.00" waitingCount="3" stopTime="0.00" timeLoss="63.73" rerouteNo="0" devices="tripinfo_3" vType="DEFAULT_VEHTYPE" speedFactor="1.10" vaporized=""/>
    <tripinfo id="11" depart="54.00" departLane="bottom3D0_0" departPos="5.10" departSpeed="0.00" departDelay="0.00" arrival="202.00" arrivalLane="A0bottom0_0" arrivalPos="286.40" arrivalSpeed="11.92" duration="148.00" routeLength="1497.83" waitingTime="8.00" waitingCount="2" stopTime="0.00" timeLoss="29.65" rerouteNo="0" devices="tripinfo_11" vType="DEFAULT_VEHTYPE" speedFactor="0.93" vaporized=""/>
    <tripinfo id="9" depart="33.00" departLane="top1B3_0" departPos="5.10" departSpeed="0.00" departDelay="0.00" arrival="209.00" arrivalLane="D3right3_0" arrivalPos="286.40" arrivalSpeed="9.22" duration="176.00" routeLength="1195.18" waitingTime="32.00" waitingCount="3" stopTime="0.00" timeLoss="51.77" rerouteNo="0" devices="tripinfo_9" vType="DEFAULT_VEHTYPE" speedFactor="0.70" vaporized=""/>
    <tripinfo id="29" depart="130.00" departLane="left2A2_0" departPos="5.10" departSpeed="0.00" departDelay="0.00" arrival="209.00" arrivalLane="A1left1_0" arrivalPos="286.40" arrivalSpeed="13.26" duration="79.00" routeLength="858.56" waitingTime="2.00" waitingCount="2" stopTime="0.00" timeLoss="18.30" rerouteNo="0" devices="tripinfo_29" vType="DEFAULT_VEHTYPE" speedFactor="1.05" vaporized=""/>
    <tripinfo id="15" depart="73.00" departLane="top0A3_0" departPos="5.10" departSpeed="0.00" departDelay="0.00" arrival="213.00" arrivalLane="A0bottom0_0" arrivalPos="286.40" arrivalSpeed="12.64" duration="140.00" routeLength="1495.58" waitingTime="9.00" waitingCount="2" stopTime="0.00" timeLoss="29.21" rerouteNo="0" devices="tripinfo_15" vType="DEFAULT_VEHTYPE" speedFactor="0.97" vaporized=""/>
    <tripinfo id="13" depart="58.00" departLane="bottom0A0_0" departPos="5.10" departSpeed="0.00" departDelay="0.00" arrival="218.00" arrivalLane="A0bottom0_0" arrivalPos="286.40" arrivalSpeed="14.24" duration="160.00" routeLength="1748.75" waitingTime="9.00" waitingCount="3" stopTime="0.00" timeLoss="39.05" rerouteNo="0" devices="tripinfo_13" vType="DEFAULT_VEHTYPE" speedFactor="1.06" vaporized=""/>
    <tripinfo id="26" depart="111.00" departLane="bottom2C0_0" departPos="5.10" departSpeed="0.00" departDelay="0.00" arrival="221.00" arrivalLane="A0bottom0_0" arrivalPos="286.40" arrivalSpeed="13.89" duration="110.00" routeLength="1197.66" waitingTime="9.00" waitingCount="2" stopTime="0.00" timeLoss="25.67" rerouteNo="0" devices="tripinfo_26" vType="DEFAULT_VEHTYPE" speedFactor="1.04" vaporized=""/>
    <tripinfo id="21" depart="86.00" departLane="right1D1_0" departPos="5.10" departSpeed="0.00" departDelay="0.00" arrival="222.00" arrivalLane="C0bottom2_0" arrivalPos="286.40" arrivalSpeed="12.61" duration="136.00" routeLength="1195.18" waitingTime="32.00" waitingCount="2" stopTime="0.00" timeLoss="48.77" rerouteNo="0" devices="tripinfo_21" vType="DEFAULT_VEHTYPE" speedFactor="1.00" vaporized=""/>
    <tripinfo id="23" depart="106.00" departLane="left2A2_0" departPos="5.10" departSpeed="0.00" departDelay="0.00" arrival="229.00" arrivalLane="A0bottom0_0" arrivalPos="286.40" arrivalSpeed="12.93" duration="123.00" routeLength="1179.77" waitingTime="13.00" waitingCount="3" stopTime="0.00" timeLoss="36.25" rerouteNo="0" devices="tripinfo_23" vType="DEFAULT_VEHTYPE" speedFactor="0.99" vaporized=""/>
    <tripinfo id="6" depart="25.00" departLane="right1D1_0" departPos="5.10" departSpeed="0.00" departDelay="0.00" arrival="231.00" arrivalLane="A3top0_0" arrivalPos="286.40" arrivalSpeed="11.97" duration="206.00" routeLength="2080.28" waitingTime="13.00" waitingCount="3" stopTime="0.00" timeLoss="44.08" rerouteNo="0" devices="tripinfo_6" vType="DEFAULT_VEHTYPE" speedFactor="0.93" vaporized=""/>
    <tripinfo id="40" depart="179.00" departLane="top0A3_0" departPos="5.10" departSpeed="0.00" departDelay="0.00" arrival="234.00" arrivalLane="A3left3_0" arrivalPos="286.40" arrivalSpeed="12.25" duration="55.00" routeLength="576.73" waitingTime="1.00" waitingCount="1" stopTime="0.00" timeLoss="11.31" rerouteNo="0" devices="tripinfo_40" vType="DEFAULT_VEHTYPE" speedFactor="0.97" vaporized=""/>
    <tripinfo id="25" depart="111.00" departLane="right3D3_0" departPos="5.10" departSpeed="0.00" departDelay="0.00" arrival="236.00" arrivalLane="B3top1_0" arrivalPos="286.40" arrivalSpeed="12.69" duration="125.00" routeLength="1177.07" waitingTime="23.00" waitingCount="1" stopTime="0.00" timeLoss="37.60" rerouteNo="0" devices="tripinfo_25" vType="DEFAULT_VEHTYPE" speedFactor="0.98" vaporized=""/>
    <tripinfo id="16" depart="74.00" departLane="right2D2_0" departPos="5.10" departSpeed="0.00" departDelay="0.00" arrival="257.00" arrivalLane="A0left0_0" arrivalPos="286.40" arrivalSpeed="15.14" duration="183.00" routeLength="2080.05" waitingTime="22.00" waitingCount="2" stopTime="0.00" timeLoss="47.09" rerouteNo="0" devices="tripinfo_16" vType="DEFAULT_VEHTYPE" speedFactor="1.11" vaporized=""/>
    <tripinfo id="28" depart="121.00" departLane="left3A3_0" departPos="5.10" departSpeed="0.00" departDelay="0.00" arrival="257.00" arrivalLane="D3top3_0" arrivalPos="286.40" arrivalSpeed="14.93" duration="136.00" routeLength="1498.06" waitingTime="22.00" waitingCount="2" stopTime="0.00" timeLoss="41.52" rerouteNo="0" devices="tripinfo_28" vType="DEFAULT_VEHTYPE" speedFactor="1.15" vaporized=""/>
    <tripinfo id="5" depart="24.00" departLane="right3D3_0" departPos="5.10" departSpeed="0.00" departDelay="0.00" arrival="259.00" arrivalLane="A0left0_0" arrivalPos="286.40" arrivalSpeed="15.32" duration="235.00" routeLength="2380.22" waitingTime="44.00" waitingCount="4" stopTime="0.00" timeLoss="82.52" rerouteNo="0" devices="tripinfo_5" vType="DEFAULT_VEHTYPE" speedFactor="1.13" vaporized=""/>
    <tripinfo id="32" depart="147.00" departLane="left3A3_0" departPos="5.10" departSpeed="0.00" departDelay="0.00" arrival="260.00" arrivalLane="A1left1_0" arrivalPos="286.40" arrivalSpeed="14.36" duration="113.00" routeLength="1161.43" waitingTime="13.00" waitingCount="2" stopTime="0.00" timeLoss="33.73" rerouteNo="0" devices="tripinfo_32" vType="DEFAULT_VEHTYPE" speedFactor="1.07" vaporized=""/>
    <tripinfo id="10" depart="46.00" departLane="right0D0_0" departPos="5.10" departSpeed="0.00" departDelay="0.00" arrival="261.00" arrivalLane="A3left3_0" arrivalPos="286.40" arrivalSpeed="13.64" duration="215.00" routeLength="2382.93" waitingTime="21.00" waitingCount="2" stopTime="0.00" timeLoss="51.68" rerouteNo="0" devices="tripinfo_10" vType="DEFAULT_VEHTYPE" speedFactor="1.06" vaporized=""/>
    <tripinfo id="17" depart="75.00" departLane="top3D3_0" departPos="5.10" departSpeed="0.00" departDelay="0.00" arrival="262.00" arrivalLane="C0bottom2_0" arrivalPos="286.40" arrivalSpeed="13.08" duration="187.00" routeLength="1782.72" waitingTime="32.00" waitingCount="3" stopTime="0.00" timeLoss="58.42" rerouteNo="0" devices="tripinfo_17" vType="DEFAULT_VEHTYPE" speedFactor="1.02" vaporized=""/>
    <tripinfo id="27" depart="120.00" departLane="left1A1_0" departPos="5.10" departSpeed="0.00" departDelay="0.00" arrival="262.00" arrivalLane="B3top1_0" arrivalPos="286.40" arrivalSpeed="13.24" duration="142.00" routeLength="1495.35" waitingTime="15.00" waitingCount="2" stopTime="0.00" timeLoss="34.67" rerouteNo="0" devices="tripinfo_27" vType="DEFAULT_VEHTYPE" speedFactor="1.02" vaporized=""/>
    <tripinfo id="35" depart="150.00" departLane="bottom1B0_0" departPos="5.10" departSpeed="0.00" departDelay="0.00" arrival="262.00" arrivalLane="A0bottom0_0" arrivalPos="286.40" arrivalSpeed="11.65" duration="112.00" routeLength="894.86" waitingTime="24.00" waitingCount="2" stopTime="0.00" timeLoss="38.93" rerouteNo="0" devices="tripinfo_35" vType="DEFAULT_VEHTYPE" speedFactor="0.90" vaporized=""/>
    <tripinfo id="30" depart="130.00" departLane="left1A1_0" departPos="5.10" departSpeed="0.00" departDelay="0.00" arrival="264.00" arrivalLane="B3top1_0" arrivalPos="286.40" arrivalSpeed="13.77" duration="134.00" routeLength="1495.35" waitingTime="4.00" waitingCount="1" stopTime="0.00" timeLoss="26.54" rerouteNo="0" devices="tripinfo_30" vType="DEFAULT_VEHTYPE" speedFactor="1.01" vaporized=""/>
    <tripinfo id="36" depart="163.00" departLane="left2A2_0" departPos="5.10" departSpeed="0.00" departDelay="0.00" arrival="266.00" arrivalLane="A0left0_0" arrivalPos="286.40" arrivalSpeed="12.42" duration="103.00" routeLength="1161.43" waitingTime="1.00" waitingCount="1" stopTime="0.00" timeLoss="15.35" rerouteNo="0" devices="tripinfo_36" vType="DEFAULT_VEHTYPE" speedFactor="0.97" vaporized=""/>
    <tripinfo id="33" depart="149.00" departLane="bottom3D0_0" departPos="5.10" departSpeed="0.00" departDelay="0.00" arrival="269.00" arrivalLane="B0bottom1_0" arrivalPos="286.40" arrivalSpeed="14.48" duration="120.00" routeLength="1197.66" waitingTime="16.00" waitingCount="2" stopTime="0.00" timeLoss="36.07" rerouteNo="0" devices="tripinfo_33" vType="DEFAULT_VEHTYPE" speedFactor="1.05" vaporized=""/>
    <tripinfo id="37" depart="169.00" departLane="top1B3_0" departPos="5.10" departSpeed="0.00" departDelay="0.00" arrival="272.00" arrivalLane="A3left3_0" arrivalPos="286.40" arrivalSpeed="11.28" duration="103.00" routeLength="879.60" waitingTime="13.00" waitingCount="2" stopTime="0.00" timeLoss="30.00" rerouteNo="0" devices="tripinfo_37" vType="DEFAULT_VEHTYPE" speedFactor="0.88" vaporized=""/>
    <tripinfo id="4" depart="21.00" departLane="bottom0A0_0" departPos="5.10" departSpeed="0.00" departDelay="0.00" arrival="274.00" arrivalLane="C3top2_0" arrivalPos="286.40" arrivalSpeed="11.20" duration="253.00" routeLength="2082.76" waitingTime="40.00" waitingCount="4" stopTime="0.00" timeLoss="73.01" rerouteNo="0" devices="tripinfo_4" vType="DEFAULT_VEHTYPE" speedFactor="0.84" vaporized=""/>
    <tripinfo id="20" depart="85.00" departLane="left1A1_0" departPos="5.10" departSpeed="0.00" departDelay="0.00" arrival="280.00" arrivalLane="D2right2_0" arrivalPos="286.40" arrivalSpeed="13.47" duration="195.00" routeLength="1782.59" waitingTime="32.00" waitingCount="3" stopTime="0.00" timeLoss="62.52" rerouteNo="0" devices="tripinfo_20" vType="DEFAULT_VEHTYPE" speedFactor="0.98" vaporized=""/>
    <tripinfo id="45" depart="192.00" departLane="left0A0_0" departPos="5.10" departSpeed="0.00" departDelay="0.00" arrival="285.00" arrivalLane="A2left2_0" arrivalPos="286.40" arrivalSpeed="14.58" duration="93.00" routeLength="1197.66" waitingTime="0.00" waitingCount="0" stopTime="0.00" timeLoss="11.25" rerouteNo="0" devices="tripinfo_45" vType="DEFAULT_VEHTYPE" speedFactor="1.07" vaporized=""/>
    <tripinfo id="19" depart="82.00" departLane="left0A0_0" departPos="5.10" departSpeed="0.00" departDelay="0.00" arrival="293.00" arrivalLane="D1right1_0" arrivalPos="286.40" arrivalSpeed="10.76" duration="211.00" routeLength="1782.59" waitingTime="29.00" waitingCount="3" stopTime="0.00" timeLoss="60.41" rerouteNo="0" devices="tripinfo_19" vType="DEFAULT_VEHTYPE" speedFactor="0.86" vaporized=""/>
    <tripinfo id="43" depart="188.00" departLane="right2D2_0" departPos="5.10" departSpeed="0.00" departDelay="0.00" arrival="300.00" arrivalLane="D3top3_0" arrivalPos="286.40" arrivalSpeed="11.90" duration="112.00" routeLength="879.60" waitingTime="31.00" waitingCount="1" stopTime="0.00" timeLoss="44.63" rerouteNo="0" devices="tripinfo_43" vType="DEFAULT_VEHTYPE" speedFactor="0.95" vaporized=""/>
    <tripinfo id="55" depart="247.00" departLane="bottom0A0_0" departPos="5.10" departSpeed="0.00" departDelay="0.00" arrival="317.00" arrivalLane="B0bottom1_0" arrivalPos="286.40" arrivalSpeed="14.90" duration="70.00" routeLength="858.56" waitingTime="1.00" waitingCount="1" stopTime="0.00" timeLoss="13.05" rerouteNo="0" devices="tripinfo_55" vType="DEFAULT_VEHTYPE" speedFactor="1.11" vaporized=""/>
    <tripinfo id="39" depart="178.00" departLane="left0A0_0" departPos="5.10" departSpeed="0.00" departDelay="0.00" arrival="319.00" arrivalLane="A3top0_0" arrivalPos="286.40" arrivalSpeed="12.82" duration="141.00" routeLength="1495.35" waitingTime="12.00" waitingCount="2" stopTime="0.00" timeLoss="32.31" rerouteNo="0" devices="tripinfo_39" vType="DEFAULT_VEHTYPE" speedFactor="1.00" vaporized=""/>
    <tripinfo id="46" depart="207.00" departLane="bottom3D0_0" departPos="5.10" departSpeed="0.00" departDelay="0.00" arrival="320.00" arrivalLane="B0bottom1_0" arrivalPos="286.40" arrivalSpeed="13.56" duration="113.00" routeLength="1197.66" waitingTime="12.00" waitingCount="2" stopTime="0.00" timeLoss="29.88" rerouteNo="0" devices="tripinfo_46" vType="DEFAULT_VEHTYPE" speedFactor="1.05" vaporized=""/>
    <tripinfo id="24" depart="110.00" departLane="bottom1B0_0" departPos="5.10" departSpeed="0.00" departDelay="0.00" arrival="321.00" arrivalLane="C3top2_0" arrivalPos="286.40" arrivalSpeed="11.92" duration="211.00" routeLength="1782.72" waitingTime="36.00" waitingCount="5" stopTime="0.00" timeLoss="71.96" rerouteNo="0" devices="tripinfo_24" vType="DEFAULT_VEHTYPE" speedFactor="0.94" vaporized=""/>
    <tripinfo id="48" depart="220.00" departLane="left1A1_0" departPos="5.10" departSpeed="0.00" departDelay="0.00" arrival="321.00" arrivalLane="A3left3_0" arrivalPos="286.40" arrivalSpeed="14.66" duration="101.00" routeLength="1197.66" waitingTime="6.00" waitingCount="1" stopTime="0.00" timeLoss="19.09" rerouteNo="0" devices="tripinfo_48" vType="DEFAULT_VEHTYPE" speedFactor="1.07" vaporized=""/>
    <tripinfo id="51" depart="240.00" departLane="right1D1_0" departPos="5.10" departSpeed="0.00" departDelay="0.00" arrival="331.00" arrivalLane="D3right3_0" arrivalPos="286.40" arrivalSpeed="14.51" duration="91.00" routeLength="1161.43" waitingTime="0.00" waitingCount="0" stopTime="0.00" timeLoss="11.09" rerouteNo="0" devices="tripinfo_51" vType="DEFAULT_VEHTYPE" speedFactor="1.06" vaporized=""/>
    <tripinfo id="38" depart="175.00" departLane="top2C3_0" departPos="5.10" departSpeed="0.00" departDelay="0.00" arrival="347.00" arrivalLane="D0bottom3_0" arrivalPos="286.40" arrivalSpeed="14.42" duration="172.00" routeLength="1782.59" waitingTime="28.00" waitingCount="3" stopTime="0.00" timeLoss="55.31" rerouteNo="0" devices="tripinfo_38" vType="DEFAULT_VEHTYPE" speedFactor="1.11" vaporized=""/>
    <tripinfo id="31" depart="143.00" departLane="right1D1_0" departPos="5.10" departSpeed="0.00" departDelay="0.00" arrival="349.00" arrivalLane="A0bottom0_0" arrivalPos="286.40" arrivalSpeed="11.01" duration="206.00" routeLength="1795.52" waitingTime="33.00" waitingCount="3" stopTime="0.00" timeLoss="57.67" rerouteNo="0" devices="tripinfo_31" vType="DEFAULT_VEHTYPE" speedFactor="0.88" vaporized=""/>
    <tripinfo id="58" depart="259.00" departLane="top1B3_0" departPos="5.10" departSpeed="0.00" departDelay="0.00" arrival="351.00" arrivalLane="A3top0_0" arrivalPos="286.40" arrivalSpeed="11.93" duration="92.00" routeLength="858.56" waitingTime="2.00" waitingCount="2" stopTime="0.00" timeLoss="20.03" rerouteNo="0" devices="tripinfo_58" vType="DEFAULT_VEHTYPE" speedFactor="0.88" vaporized=""/>
    <tripinfo id="54" depart="249.00" departLane="right3D3_0" departPos="5.10" departSpeed="0.00" departDelay="3.00" arrival="359.00" arrivalLane="D2right2_0" arrivalPos="286.40" arrivalSpeed="14.00" duration="110.00" routeLength="894.86" waitingTime="26.00" waitingCount="2" stopTime="0.00" timeLoss="46.38" rerouteNo="0" devices="tripinfo_54" vType="DEFAULT_VEHTYPE" speedFactor="1.03" vaporized=""/>
    <tripinfo id="62" depart="281.00" departLane="top3D3_0" departPos="5.10" departSpeed="0.00" departDelay="0.00" arrival="365.00" arrivalLane="D2right2_0" arrivalPos="286.40" arrivalSpeed="11.30" duration="84.00" routeLength="897.72" waitingTime="0.00" waitingCount="0" stopTime="0.00" timeLoss="9.48" rerouteNo="0" devices="tripinfo_62" vType="DEFAULT_VEHTYPE" speedFactor="0.88" vaporized=""/>
    <tripinfo id="52" depart="246.00" departLane="left3A3_0" departPos="5.10" departSpeed="0.00" departDelay="0.00" arrival="368.00" arrivalLane="A0left0_0" arrivalPos="286.40" arrivalSpeed="12.96" duration="122.00" routeLength="1461.60" waitingTime="1.00" waitingCount="1" stopTime="0.00" timeLoss="17.34" rerouteNo="0" devices="tripinfo_52" vType="DEFAULT_VEHTYPE" speedFactor="1.02" vaporized=""/>
    <tripinfo id="34" depart="149.00" departLane="right2D2_0" departPos="5.10" departSpeed="0.00" departDelay="0.00" arrival="385.00" arrivalLane="A0left0_0" arrivalPos="286.40" arrivalSpeed="11.71" duration="236.00" routeLength="2080.05" waitingTime="44.00" waitingCount="3" stopTime="0.00" timeLoss="73.48" rerouteNo="0" devices="tripinfo_34" vType="DEFAULT_VEHTYPE" speedFactor="0.93" vaporized=""/>
    <tripinfo id="41" depart="183.00" departLane="top1B3_0" departPos="5.10" departSpeed="0.00" departDelay="0.00" arrival="388.00" arrivalLane="B0bottom1_0" arrivalPos="286.40" arrivalSpeed="14.80" duration="205.00" routeLength="1495.58" waitingTime="71.00" waitingCount="4" stopTime="0.00" timeLoss="104.54" rerouteNo="0" devices="tripinfo_41" vType="DEFAULT_VEHTYPE" speedFactor="1.07" vaporized=""/>
    <tripinfo id="50" depart="237.00" departLane="top1B3_0" departPos="5.10" departSpeed="0.00" departDelay="0.00" arrival="390.00" arrivalLane="D3right3_0" arrivalPos="286.40" arrivalSpeed="12.35" duration="153.00" routeLength="1195.18" waitingTime="41.00" waitingCount="3" stopTime="0.00" timeLoss="63.29" rerouteNo="0" devices="tripinfo_50" vType="DEFAULT_VEHTYPE" speedFactor="0.97" vaporized=""/>
    <tripinfo id="56" depart="252.00" departLane="right3D3_0" departPos="5.10" departSpeed="0.00" departDelay="0.00" arrival="391.00" arrivalLane="A3top0_0" arrivalPos="286.40" arrivalSpeed="15.20" duration="139.00" routeLength="1477.24" waitingTime="18.00" waitingCount="2" stopTime="0.00" timeLoss="46.93" rerouteNo="0" devices="tripinfo_56" vType="DEFAULT_VEHTYPE" speedFactor="1.17" vaporized=""/>
    <tripinfo id="42" depart="184.00" departLane="left2A2_0" departPos="5.10" departSpeed="0.00" departDelay="0.00" arrival="399.00" arrivalLane="D3top3_0" arrivalPos="286.40" arrivalSpeed="13.13" duration="215.00" routeLength="1795.52" waitingTime="46.00" waitingCount="5" stopTime="0.00" timeLoss="87.99" rerouteNo="0" devices="tripinfo_42" vType="DEFAULT_VEHTYPE" speedFactor="1.03" vaporized=""/>
    <tripinfo id="44" depart="189.00" departLane="top3D3_0" departPos="5.10" departSpeed="0.00" departDelay="0.00" arrival="418.00" arrivalLane="A0left0_0" arrivalPos="286.40" arrivalSpeed="14.13" duration="229.00" routeLength="2380.45" waitingTime="31.00" waitingCount="4" stopTime="0.00" timeLoss="67.21" rerouteNo="0" devices="tripinfo_44" vType="DEFAULT_VEHTYPE" speedFactor="1.06" vaporized=""/>
    <tripinfo id="73" depart="323.00" departLane="right1D1_0" departPos="5.10" departSpeed="0.00" departDelay="0.00" arrival="418.00" arrivalLane="D0right0_0" arrivalPos="286.40" arrivalSpeed="14.03" duration="95.00" routeLength="894.86" waitingTime="15.00" waitingCount="2" stopTime="0.00" timeLoss="32.98" rerouteNo="0" devices="tripinfo_73" vType="DEFAULT_VEHTYPE" speedFactor="1.06" vaporized=""/>
    <tripinfo id="66" depart="298.00" departLane="left3A3_0" departPos="5.10" departSpeed="0.00" departDelay="0.00" arrival="421.00" arrivalLane="B3top1_0" arrivalPos="286.40" arrivalSpeed="12.57" duration="123.00" routeLength="897.72" waitingTime="35.00" waitingCount="2" stopTime="0.00" timeLoss="53.74" rerouteNo="0" devices="tripinfo_66" vType="DEFAULT_VEHTYPE" speedFactor="0.95" vaporized=""/>
    <tripinfo id="57" depart="252.00" departLane="bottom2C0_0" departPos="5.10" departSpeed="0.00" departDelay="0.00" arrival="427.00" arrivalLane="A1left1_0" arrivalPos="286.40" arrivalSpeed="13.95" duration="175.00" routeLength="1495.35" waitingTime="49.00" waitingCount="3" stopTime="0.00" timeLoss="75.63" rerouteNo="0" devices="tripinfo_57" vType="DEFAULT_VEHTYPE" speedFactor="1.09" vaporized=""/>
    <tripinfo id="74" depart="324.00" departLane="left2A2_0" departPos="5.10" departSpeed="0.00" departDelay="0.00" arrival="430.00" arrivalLane="A0bottom0_0" arrivalPos="286.40" arrivalSpeed="13.14" duration="106.00" routeLength="1179.77" waitingTime="8.00" waitingCount="1" stopTime="0.00" timeLoss="23.53" rerouteNo="0" devices="tripinfo_74" vType="DEFAULT_VEHTYPE" speedFactor="1.04" vaporized=""/>
    <tripinfo id="65" depart="297.00" departLane="bottom2C0_0" departPos="5.10" departSpeed="0.00" departDelay="0.00" arrival="441.00" arrivalLane="A1left1_0" arrivalPos="286.40" arrivalSpeed="13.44" duration="144.00" routeLength="1495.35" waitingTime="18.00" waitingCount="1" stopTime="0.00" timeLoss="34.54" rerouteNo="0" devices="tripinfo_65" vType="DEFAULT_VEHTYPE" speedFactor="0.99" vaporized=""/>
    <tripinfo id="69" depart="303.00" departLane="bottom3D0_0" departPos="5.10" departSpeed="0.00" departDelay="0.00" arrival="457.00" arrivalLane="A0bottom0_0" arrivalPos="286.40" arrivalSpeed="15.51" duration="154.00" routeLength="1497.83" waitingTime="29.00" waitingCount="3" stopTime="0.00" timeLoss="57.39" rerouteNo="0" devices="tripinfo_69" vType="DEFAULT_VEHTYPE" speedFactor="1.13" vaporized=""/>
    <tripinfo id="64" depart="294.00" departLane="bottom0A0_0" departPos="5.10" departSpeed="0.00" departDelay="0.00" arrival="461.00" arrivalLane="A0bottom0_0" arrivalPos="286.40" arrivalSpeed="14.03" duration="167.00" routeLength="1748.75" waitingTime="10.00" waitingCount="3" stopTime="0.00" timeLoss="40.28" rerouteNo="0" devices="tripinfo_64" vType="DEFAULT_VEHTYPE" speedFactor="1.01" vaporized=""/>
    <tripinfo id="85" depart="368.00" departLane="left2A2_0" departPos="5.10" departSpeed="0.00" departDelay="0.00" arrival="465.00" arrivalLane="A0bottom0_0" arrivalPos="286.40" arrivalSpeed="16.61" duration="97.00" routeLength="1179.77" waitingTime="5.00" waitingCount="1" stopTime="0.00" timeLoss="25.53" rerouteNo="0" devices="tripinfo_85" vType="DEFAULT_VEHTYPE" speedFactor="1.21" vaporized=""/>
    <tripinfo id="82" depart="358.00" departLane="left0A0_0" departPos="5.10" departSpeed="0.00" departDelay="0.00" arrival="472.00" arrivalLane="C0bottom2_0" arrivalPos="286.40" arrivalSpeed="15.55" duration="114.00" routeLength="1177.07" waitingTime="14.00" waitingCount="3" stopTime="0.00" timeLoss="39.97" rerouteNo="0" devices="tripinfo_82" vType="DEFAULT_VEHTYPE" speedFactor="1.16" vaporized=""/>
    <tripinfo id="60" depart="266.00" departLane="top2C3_0" departPos="5.10" departSpeed="0.00" departDelay="0.00" arrival="487.00" arrivalLane="D0right0_0" arrivalPos="286.40" arrivalSpeed="14.78" duration="221.00" routeLength="1795.52" waitingTime="62.00" waitingCount="5" stopTime="0.00" timeLoss="104.83" rerouteNo="0" devices="tripinfo_60" vType="DEFAULT_VEHTYPE" speedFactor="1.12" vaporized=""/>
    <tripinfo id="49" depart="229.00" departLane="bottom0A0_0" departPos="5.10" departSpeed="0.00" departDelay="0.00" arrival="492.00" arrivalLane="D2right2_0" arrivalPos="286.40" arrivalSpeed="11.94" duration="263.00" routeLength="2080.28" waitingTime="53.00" waitingCount="6" stopTime="0.00" timeLoss="94.50" rerouteNo="0" devices="tripinfo_49" vType="DEFAULT_VEHTYPE" speedFactor="0.90" vaporized=""/>
    <tripinfo id="63" depart="291.00" departLane="left3A3_0" departPos="5.10" departSpeed="0.00" departDelay="0.00" arrival="494.00" arrivalLane="D2right2_0" arrivalPos="286.40" arrivalSpeed="12.23" duration="203.00" routeLength="1782.72" waitingTime="30.00" waitingCount="4" stopTime="0.00" timeLoss="61.07" rerouteNo="0" devices="tripinfo_63" vType="DEFAULT_VEHTYPE" speedFactor="0.92" vaporized=""/>
    <tripinfo id="68" depart="303.00" departLane="left3A3_0" departPos="5.10" departSpeed="0.00" departDelay="0.00" arrival="495.00" arrivalLane="D2right2_1" arrivalPos="286.40" arrivalSpeed="12.12" duration="192.00" routeLength="1782.72" waitingTime="21.00" waitingCount="4" stopTime="0.00" timeLoss="54.50" rerouteNo="0" devices="tripinfo_68" vType="DEFAULT_VEHTYPE" speedFactor="0.95" vaporized=""/>
    <tripinfo id="47" depart="210.00" departLane="right3D3_0" departPos="5.10" departSpeed="0.00" departDelay="0.00" arrival="498.00" arrivalLane="A0left0_0" arrivalPos="286.40" arrivalSpeed="14.08" duration="288.00" routeLength="2380.22" waitingTime="74.00" waitingCount="7" stopTime="0.00" timeLoss="124.39" rerouteNo="0" devices="tripinfo_47" vType="DEFAULT_VEHTYPE" speedFactor="1.05" vaporized=""/>
    <tripinfo id="59" depart="263.00" departLane="left3A3_0" departPos="5.10" departSpeed="0.00" departDelay="0.00" arrival="498.00" arrivalLane="D0right0_0" arrivalPos="286.40" arrivalSpeed="14.88" duration="235.00" routeLength="2382.93" waitingTime="41.00" waitingCount="4" stopTime="0.00" timeLoss="75.52" rerouteNo="0" devices="tripinfo_59" vType="DEFAULT_VEHTYPE" speedFactor="1.09" vaporized=""/>