<?xml version="1.0" encoding="UTF-8"?>

<!-- generated on 12/19/21 17:06:34 by Eclipse SUMO sumo Version 1.7.0
<configuration xmlns:xsi="http://www.w3.org/2001/XMLSchema-instance" xsi:noNamespaceSchemaLocation="http://sumo.dlr.de/xsd/sumoConfiguration.xsd">

    <input>
        <net-file value="C:\Users\longs\Desktop\RESCO-main\environments\grid4x4\grid4x4.net.xml"/>
        <route-files value="C:\Users\longs\Desktop\RESCO-main\environments\grid4x4\grid4x4_92.rou.xml"/>
    </input>

    <output>
        <tripinfo-output value="C:\Users\longs\Desktop\RESCO-main\logs\IDQN-tr1-grid4x4-0-drqlong-delaydiff_pressure05\tripinfo_92.xml"/>
        <tripinfo-output.write-unfinished value="true"/>
    </output>

    <processing>
        <time-to-teleport value="-1"/>
    </processing>

    <report>
        <no-warnings value="true"/>
        <no-step-log value="true"/>
    </report>

    <traci_server>
        <remote-port value="56164"/>
    </traci_server>

    <random_number>
        <random value="true"/>
    </random_number>

</configuration>
-->

<tripinfos xmlns:xsi="http://www.w3.org/2001/XMLSchema-instance" xsi:noNamespaceSchemaLocation="http://sumo.dlr.de/xsd/tripinfo_file.xsd">
    <tripinfo id="6" depart="22.00" departLane="right3D3_0" departPos="5.10" departSpeed="0.00" departDelay="0.00" arrival="97.00" arrivalLane="C3top2_0" arrivalPos="286.40" arrivalSpeed="14.01" duration="75.00" routeLength="876.90" waitingTime="1.00" waitingCount="1" stopTime="0.00" timeLoss="13.01" rerouteNo="0" devices="tripinfo_6" vType="DEFAULT_VEHTYPE" speedFactor="1.03" vaporized=""/>
    <tripinfo id="0" depart="0.00" departLane="left0A0_0" departPos="5.10" departSpeed="0.00" departDelay="0.00" arrival="119.00" arrivalLane="A2left2_0" arrivalPos="286.40" arrivalSpeed="14.15" duration="119.00" routeLength="1197.66" waitingTime="15.00" waitingCount="2" stopTime="0.00" timeLoss="34.80" rerouteNo="0" devices="tripinfo_0" vType="DEFAULT_VEHTYPE" speedFactor="1.04" vaporized=""/>
    <tripinfo id="7" depart="32.00" departLane="top1B3_0" departPos="5.10" departSpeed="0.00" departDelay="0.00" arrival="162.00" arrivalLane="D3right3_0" arrivalPos="286.40" arrivalSpeed="11.98" duration="130.00" routeLength="1195.18" waitingTime="14.00" waitingCount="2" stopTime="0.00" timeLoss="32.53" rerouteNo="0" devices="tripinfo_7" vType="DEFAULT_VEHTYPE" speedFactor="0.89" vaporized=""/>
    <tripinfo id="10" depart="51.00" departLane="right1D1_0" departPos="5.10" departSpeed="0.00" departDelay="0.00" arrival="172.00" arrivalLane="C0bottom2_0" arrivalPos="286.40" arrivalSpeed="13.52" duration="121.00" routeLength="1195.18" waitingTime="16.00" waitingCount="2" stopTime="0.00" timeLoss="33.25" rerouteNo="0" devices="tripinfo_10" vType="DEFAULT_VEHTYPE" speedFactor="0.99" vaporized=""/>
    <tripinfo id="5" depart="22.00" departLane="bottom3D0_0" departPos="5.10" departSpeed="0.00" departDelay="0.00" arrival="173.00" arrivalLane="D0bottom3_0" arrivalPos="286.40" arrivalSpeed="14.68" duration="151.00" routeLength="1745.91" waitingTime="7.00" waitingCount="4" stopTime="0.00" timeLoss="37.82" rerouteNo="0" devices="tripinfo_5" vType="DEFAULT_VEHTYPE" speedFactor="1.13" vaporized=""/>
    <tripinfo id="8" depart="46.00" departLane="left1A1_0" departPos="5.10" departSpeed="0.00" departDelay="0.00" arrival="178.00" arrivalLane="A3top0_0" arrivalPos="286.40" arrivalSpeed="13.79" duration="132.00" routeLength="1195.18" waitingTime="27.00" waitingCount="3" stopTime="0.00" timeLoss="49.13" rerouteNo="0" devices="tripinfo_8" vType="DEFAULT_VEHTYPE" speedFactor="1.05" vaporized=""/>
    <tripinfo id="3" depart="9.00" departLane="left3A3_0" departPos="5.10" departSpeed="0.00" departDelay="0.00" arrival="191.00" arrivalLane="D2right2_0" arrivalPos="286.40" arrivalSpeed="12.90" duration="182.00" routeLength="1782.72" waitingTime="24.00" waitingCount="2" stopTime="0.00" timeLoss="45.92" rerouteNo="0" devices="tripinfo_3" vType="DEFAULT_VEHTYPE" speedFactor="0.96" vaporized=""/>
    <tripinfo id="14" depart="68.00" departLane="top3D3_0" departPos="5.10" departSpeed="0.00" departDelay="0.00" arrival="208.00" arrivalLane="A3top0_0" arrivalPos="286.40" arrivalSpeed="13.37" duration="140.00" routeLength="1461.60" waitingTime="11.00" waitingCount="1" stopTime="0.00" timeLoss="29.59" rerouteNo="0" devices="tripinfo_14" vType="DEFAULT_VEHTYPE" speedFactor="0.97" vaporized=""/>
    <tripinfo id="4" depart="22.00" departLane="top3D3_0" departPos="5.10" departSpeed="0.00" departDelay="0.00" arrival="209.00" arrivalLane="A2left2_0" arrivalPos="286.40" arrivalSpeed="14.03" duration="187.00" routeLength="1780.11" waitingTime="28.00" waitingCount="4" stopTime="0.00" timeLoss="59.61" rerouteNo="0" devices="tripinfo_4" vType="DEFAULT_VEHTYPE" speedFactor="1.02" vaporized=""/>
    <tripinfo id="2" depart="5.00" departLane="right3D3_0" departPos="5.10" departSpeed="0.00" departDelay="0.00" arrival="212.00" arrivalLane="A1left1_0" arrivalPos="286.40" arrivalSpeed="13.41" duration="207.00" routeLength="2080.05" waitingTime="27.00" waitingCount="3" stopTime="0.00" timeLoss="58.39" rerouteNo="0" devices="tripinfo_2" vType="DEFAULT_VEHTYPE" speedFactor="1.02" vaporized=""/>
    <tripinfo id="24" depart="167.00" departLane="left0A0_0" departPos="5.10" departSpeed="0.00" departDelay="0.00" arrival="218.00" arrivalLane="A0bottom0_0" arrivalPos="286.40" arrivalSpeed="14.70" duration="51.00" routeLength="576.73" waitingTime="1.00" waitingCount="1" stopTime="0.00" timeLoss="12.20" rerouteNo="0" devices="tripinfo_24" vType="DEFAULT_VEHTYPE" speedFactor="1.09" vaporized=""/>
    <tripinfo id="1" depart="1.00" departLane="right0D0_0" departPos="5.10" departSpeed="0.00" departDelay="0.00" arrival="219.00" arrivalLane="A3top0_0" arrivalPos="286.40" arrivalSpeed="13.60" duration="218.00" routeLength="2380.45" waitingTime="16.00" waitingCount="4" stopTime="0.00" timeLoss="52.93" rerouteNo="0" devices="tripinfo_1" vType="DEFAULT_VEHTYPE" speedFactor="1.05" vaporized=""/>
    <tripinfo id="11" depart="64.00" departLane="left3A3_0" departPos="5.10" departSpeed="0.00" departDelay="0.00" arrival="240.00" arrivalLane="D0bottom3_0" arrivalPos="286.40" arrivalSpeed="15.72" duration="176.00" routeLength="2380.45" waitingTime="5.00" waitingCount="2" stopTime="0.00" timeLoss="26.60" rerouteNo="0" devices="tripinfo_11" vType="DEFAULT_VEHTYPE" speedFactor="1.16" vaporized=""/>
    <tripinfo id="36" depart="210.00" departLane="left0A0_0" departPos="5.10" departSpeed="0.00" departDelay="0.00" arrival="263.00" arrivalLane="A0bottom0_0" arrivalPos="286.40" arrivalSpeed="13.40" duration="53.00" routeLength="576.73" waitingTime="1.00" waitingCount="1" stopTime="0.00" timeLoss="10.84" rerouteNo="0" devices="tripinfo_36" vType="DEFAULT_VEHTYPE" speedFactor="1.01" vaporized=""/>
    <tripinfo id="29" depart="177.00" departLane="top1B3_0" departPos="5.10" departSpeed="0.00" departDelay="3.00" arrival="264.00" arrivalLane="C3top2_0" arrivalPos="286.40" arrivalSpeed="12.52" duration="87.00" routeLength="894.86" waitingTime="7.00" waitingCount="1" stopTime="0.00" timeLoss="19.28" rerouteNo="0" devices="tripinfo_29" vType="DEFAULT_VEHTYPE" speedFactor="0.97" vaporized=""/>
    <tripinfo id="16" depart="77.00" departLane="left1A1_0" departPos="5.10" departSpeed="0.00" departDelay="0.00" arrival="279.00" arrivalLane="C3top2_1" arrivalPos="286.40" arrivalSpeed="15.51" duration="202.00" routeLength="1795.52" waitingTime="42.00" waitingCount="5" stopTime="0.00" timeLoss="87.09" rerouteNo="0" devices="tripinfo_16" vType="DEFAULT_VEHTYPE" speedFactor="1.13" vaporized=""/>
    <tripinfo id="13" depart="67.00" departLane="bottom1B0_0" departPos="5.10" departSpeed="0.00" departDelay="0.00" arrival="283.00" arrivalLane="C3top2_0" arrivalPos="286.40" arrivalSpeed="10.89" duration="216.00" routeLength="1782.72" waitingTime="27.00" waitingCount="5" stopTime="0.00" timeLoss="64.00" rerouteNo="0" devices="tripinfo_13" vType="DEFAULT_VEHTYPE" speedFactor="0.85" vaporized=""/>
    <tripinfo id="15" depart="71.00" departLane="bottom2C0_0" departPos="5.10" departSpeed="0.00" departDelay="0.00" arrival="284.00" arrivalLane="A3top0_0" arrivalPos="286.40" arrivalSpeed="12.08" duration="213.00" routeLength="2080.05" waitingTime="23.00" waitingCount="4" stopTime="0.00" timeLoss="53.78" rerouteNo="0" devices="tripinfo_15" vType="DEFAULT_VEHTYPE" speedFactor="0.95" vaporized=""/>
    <tripinfo id="17" depart="102.00" departLane="right2D2_0" departPos="5.10" departSpeed="0.00" departDelay="0.00" arrival="291.00" arrivalLane="D2right2_0" arrivalPos="286.40" arrivalSpeed="12.70" duration="189.00" routeLength="1748.75" waitingTime="20.00" waitingCount="4" stopTime="0.00" timeLoss="51.82" rerouteNo="0" devices="tripinfo_17" vType="DEFAULT_VEHTYPE" speedFactor="0.94" vaporized=""/>
    <tripinfo id="12" depart="64.00" departLane="right3D3_0" departPos="5.10" departSpeed="0.00" departDelay="0.00" arrival="300.00" arrivalLane="B0bottom1_0" arrivalPos="286.40" arrivalSpeed="12.83" duration="236.00" routeLength="2095.69" waitingTime="45.00" waitingCount="5" stopTime="0.00" timeLoss="80.29" rerouteNo="0" devices="tripinfo_12" vType="DEFAULT_VEHTYPE" speedFactor="0.98" vaporized=""/>
    <tripinfo id="19" depart="119.00" departLane="top2C3_0" departPos="5.10" departSpeed="0.00" departDelay="0.00" arrival="302.00" arrivalLane="B0bottom1_0" arrivalPos="286.40" arrivalSpeed="13.31" duration="183.00" routeLength="1782.72" waitingTime="21.00" waitingCount="3" stopTime="0.00" timeLoss="48.01" rerouteNo="0" devices="tripinfo_19" vType="DEFAULT_VEHTYPE" speedFactor="0.96" vaporized=""/>
    <tripinfo id="27" depart="175.00" departLane="bottom2C0_0" departPos="5.10" departSpeed="0.00" departDelay="3.00" arrival="302.00" arrivalLane="A0left0_0" arrivalPos="286.40" arrivalSpeed="12.20" duration="127.00" routeLength="1195.18" waitingTime="19.00" waitingCount="1" stopTime="0.00" timeLoss="30.83" rerouteNo="0" devices="tripinfo_27" vType="DEFAULT_VEHTYPE" speedFactor="0.91" vaporized=""/>
    <tripinfo id="9" depart="47.00" departLane="top3D3_0" departPos="5.10" departSpeed="0.00" departDelay="0.00" arrival="304.00" arrivalLane="A0bottom0_0" arrivalPos="286.40" arrivalSpeed="11.46" duration="257.00" routeLength="2382.93" waitingTime="17.00" waitingCount="4" stopTime="0.00" timeLoss="51.86" rerouteNo="0" devices="tripinfo_9" vType="DEFAULT_VEHTYPE" speedFactor="0.84" vaporized=""/>
    <tripinfo id="22" depart="163.00" departLane="bottom2C0_0" departPos="5.10" departSpeed="0.00" departDelay="0.00" arrival="306.00" arrivalLane="D3right3_0" arrivalPos="286.40" arrivalSpeed="15.47" duration="143.00" routeLength="1780.11" waitingTime="11.00" waitingCount="2" stopTime="0.00" timeLoss="31.70" rerouteNo="0" devices="tripinfo_22" vType="DEFAULT_VEHTYPE" speedFactor="1.16" vaporized=""/>
    <tripinfo id="21" depart="152.00" departLane="right1D1_0" departPos="5.10" departSpeed="0.00" departDelay="0.00" arrival="311.00" arrivalLane="D1right1_0" arrivalPos="286.40" arrivalSpeed="13.10" duration="159.00" routeLength="1748.75" waitingTime="5.00" waitingCount="2" stopTime="0.00" timeLoss="30.12" rerouteNo="0" devices="tripinfo_21" vType="DEFAULT_VEHTYPE" speedFactor="1.00" vaporized=""/>
    <tripinfo id="35" depart="208.00" departLane="right3D3_0" departPos="5.10" departSpeed="0.00" departDelay="0.00" arrival="311.00" arrivalLane="C3top2_0" arrivalPos="286.40" arrivalSpeed="12.84" duration="103.00" routeLength="876.90" waitingTime="17.00" waitingCount="2" stopTime="0.00" timeLoss="34.61" rerouteNo="0" devices="tripinfo_35" vType="DEFAULT_VEHTYPE" speedFactor="0.94" vaporized=""/>
    <tripinfo id="18" depart="114.00" departLane="bottom0A0_0" departPos="5.10" departSpeed="0.00" departDelay="0.00" arrival="318.00" arrivalLane="D3top3_0" arrivalPos="286.40" arrivalSpeed="14.24" duration="204.00" routeLength="2382.93" waitingTime="14.00" waitingCount="3" stopTime="0.00" timeLoss="39.50" rerouteNo="0" devices="tripinfo_18" vType="DEFAULT_VEHTYPE" speedFactor="1.05" vaporized=""/>
    <tripinfo id="31" depart="178.00" departLane="bottom1B0_0" departPos="5.10" departSpeed="0.00" departDelay="0.00" arrival="330.00" arrivalLane="B0bottom1_0" arrivalPos="286.40" arrivalSpeed="14.93" duration="152.00" routeLength="1748.75" waitingTime="9.00" waitingCount="2" stopTime="0.00" timeLoss="33.37" rerouteNo="0" devices="tripinfo_31" vType="DEFAULT_VEHTYPE" speedFactor="1.08" vaporized=""/>
    <tripinfo id="20" depart="151.00" departLane="bottom1B0_0" departPos="5.10" departSpeed="0.00" departDelay="0.00" arrival="339.00" arrivalLane="D3right3_0" arrivalPos="286.40" arrivalSpeed="13.41" duration="188.00" routeLength="2080.28" waitingTime="10.00" waitingCount="2" stopTime="0.00" timeLoss="35.94" rerouteNo="0" devices="tripinfo_20" vType="DEFAULT_VEHTYPE" speedFactor="0.99" vaporized=""/>
    <tripinfo id="26" depart="172.00" departLane="bottom2C0_0" departPos="5.10" departSpeed="0.00" departDelay="0.00" arrival="344.00" arrivalLane="C3top2_0" arrivalPos="286.40" arrivalSpeed="11.08" duration="172.00" routeLength="1495.58" waitingTime="18.00" waitingCount="2" stopTime="0.00" timeLoss="41.88" rerouteNo="0" devices="tripinfo_26" vType="DEFAULT_VEHTYPE" speedFactor="0.83" vaporized=""/>
    <tripinfo id="34" depart="202.00" departLane="right1D1_0" departPos="5.10" departSpeed="0.00" departDelay="0.00" arrival="349.00" arrivalLane="A0left0_0" arrivalPos="286.40" arrivalSpeed="15.63" duration="147.00" routeLength="1782.59" waitingTime="10.00" waitingCount="2" stopTime="0.00" timeLoss="32.94" rerouteNo="0" devices="tripinfo_34" vType="DEFAULT_VEHTYPE" speedFactor="1.14" vaporized=""/>
    <tripinfo id="28" depart="174.00" departLane="top1B3_0" departPos="5.10" departSpeed="0.00" departDelay="0.00" arrival="359.00" arrivalLane="B3top1_0" arrivalPos="286.40" arrivalSpeed="12.81" duration="185.00" routeLength="1748.75" waitingTime="28.00" waitingCount="3" stopTime="0.00" timeLoss="56.65" rerouteNo="0" devices="tripinfo_28" vType="DEFAULT_VEHTYPE" speedFactor="1.00" vaporized=""/>
    <tripinfo id="25" depart="171.00" departLane="right0D0_0" departPos="5.10" departSpeed="0.00" departDelay="0.00" arrival="361.00" arrivalLane="A3top0_0" arrivalPos="286.40" arrivalSpeed="15.05" duration="190.00" routeLength="2380.45" waitingTime="8.00" waitingCount="2" stopTime="0.00" timeLoss="32.06" rerouteNo="0" devices="tripinfo_25" vType="DEFAULT_VEHTYPE" speedFactor="1.09" vaporized=""/>
    <tripinfo id="38" depart="219.00" departLane="right2D2_0" departPos="5.10" departSpeed="0.00" departDelay="0.00" arrival="369.00" arrivalLane="A2left2_0" arrivalPos="286.40" arrivalSpeed="14.12" duration="150.00" routeLength="1495.58" waitingTime="21.00" waitingCount="3" stopTime="0.00" timeLoss="44.68" rerouteNo="0" devices="tripinfo_38" vType="DEFAULT_VEHTYPE" speedFactor="1.03" vaporized=""/>
    <tripinfo id="48" depart="282.00" departLane="right0D0_0" departPos="5.10" departSpeed="0.00" departDelay="0.00" arrival="369.00" arrivalLane="D1right1_0" arrivalPos="286.40" arrivalSpeed="12.05" duration="87.00" routeLength="858.56" waitingTime="1.00" waitingCount="1" stopTime="0.00" timeLoss="15.07" rerouteNo="0" devices="tripinfo_48" vType="DEFAULT_VEHTYPE" speedFactor="0.88" vaporized=""/>
    <tripinfo id="40" depart="248.00" departLane="bottom0A0_0" departPos="5.10" departSpeed="0.00" departDelay="0.00" arrival="378.00" arrivalLane="A2left2_0" arrivalPos="286.40" arrivalSpeed="14.10" duration="130.00" routeLength="1197.89" waitingTime="22.00" waitingCount="3" stopTime="0.00" timeLoss="45.91" rerouteNo="0" devices="tripinfo_40" vType="DEFAULT_VEHTYPE" speedFactor="1.03" vaporized=""/>
    <tripinfo id="30" depart="177.00" departLane="right0D0_0" departPos="5.10" departSpeed="0.00" departDelay="0.00" arrival="380.00" arrivalLane="A2left2_0" arrivalPos="286.40" arrivalSpeed="13.55" duration="203.00" routeLength="2082.76" waitingTime="15.00" waitingCount="3" stopTime="0.00" timeLoss="58.04" rerouteNo="0" devices="tripinfo_30" vType="DEFAULT_VEHTYPE" speedFactor="1.04" vaporized=""/>
    <tripinfo id="53" depart="293.00" departLane="left2A2_0" departPos="5.10" departSpeed="0.00" departDelay="0.00" arrival="381.00" arrivalLane="A3top0_0" arrivalPos="286.40" arrivalSpeed="13.56" duration="88.00" routeLength="895.01" waitingTime="12.00" waitingCount="1" stopTime="0.00" timeLoss="24.28" rerouteNo="0" devices="tripinfo_53" vType="DEFAULT_VEHTYPE" speedFactor="1.03" vaporized=""/>
    <tripinfo id="23" depart="166.00" departLane="top0A3_0" departPos="5.10" departSpeed="0.00" departDelay="0.00" arrival="389.00" arrivalLane="D1right1_0" arrivalPos="286.40" arrivalSpeed="13.13" duration="223.00" routeLength="2095.69" waitingTime="39.00" waitingCount="4" stopTime="0.00" timeLoss="70.00" rerouteNo="0" devices="tripinfo_23" vType="DEFAULT_VEHTYPE" speedFactor="0.99" vaporized=""/>
    <tripinfo id="43" depart="258.00" departLane="left1A1_0" departPos="5.10" departSpeed="0.00" departDelay="3.00" arrival="391.00" arrivalLane="D1right1_1" arrivalPos="286.40" arrivalSpeed="14.06" duration="133.00" routeLength="1495.58" waitingTime="9.00" waitingCount="1" stopTime="0.00" timeLoss="27.57" rerouteNo="0" devices="tripinfo_43" vType="DEFAULT_VEHTYPE" speedFactor="1.03" vaporized=""/>
    <tripinfo id="51" depart="289.00" departLane="left0A0_0" departPos="5.10" departSpeed="0.00" departDelay="0.00" arrival="391.00" arrivalLane="C0bottom2_0" arrivalPos="286.40" arrivalSpeed="12.34" duration="102.00" routeLength="1177.07" waitingTime="0.00" waitingCount="0" stopTime="0.00" timeLoss="14.29" rerouteNo="0" devices="tripinfo_51" vType="DEFAULT_VEHTYPE" speedFactor="0.98" vaporized=""/>
    <tripinfo id="60" depart="322.00" departLane="right1D1_0" departPos="5.10" departSpeed="0.00" departDelay="0.00" arrival="399.00" arrivalLane="D0bottom3_0" arrivalPos="286.40" arrivalSpeed="13.54" duration="77.00" routeLength="895.01" waitingTime="5.00" waitingCount="1" stopTime="0.00" timeLoss="14.66" rerouteNo="0" devices="tripinfo_60" vType="DEFAULT_VEHTYPE" speedFactor="1.04" vaporized=""/>
    <tripinfo id="50" depart="285.00" departLane="top1B3_0" departPos="5.10" departSpeed="0.00" departDelay="0.00" arrival="408.00" arrivalLane="D3right3_0" arrivalPos="286.40" arrivalSpeed="14.31" duration="123.00" routeLength="1195.18" waitingTime="23.00" waitingCount="2" stopTime="0.00" timeLoss="42.70" rerouteNo="0" devices="tripinfo_50" vType="DEFAULT_VEHTYPE" speedFactor="1.08" vaporized=""/>
    <tripinfo id="32" depart="184.00" departLane="left0A0_0" departPos="5.10" departSpeed="0.00" departDelay="0.00" arrival="420.00" arrivalLane="D3top3_0" arrivalPos="286.40" arrivalSpeed="12.42" duration="236.00" routeLength="2395.86" waitingTime="27.00" waitingCount="3" stopTime="0.00" timeLoss="54.54" rerouteNo="0" devices="tripinfo_32" vType="DEFAULT_VEHTYPE" speedFactor="0.96" vaporized=""/>
    <tripinfo id="37" depart="213.00" departLane="left0A0_0" departPos="5.10" departSpeed="0.00" departDelay="1.00" arrival="421.00" arrivalLane="B3top1_0" arrivalPos="286.40" arrivalSpeed="11.81" duration="208.00" routeLength="1795.52" waitingTime="36.00" waitingCount="4" stopTime="0.00" timeLoss="66.55" rerouteNo="0" devices="tripinfo_37" vType="DEFAULT_VEHTYPE" speedFactor="0.92" vaporized=""/>
    <tripinfo id="42" depart="255.00" departLane="left1A1_0" departPos="5.10" departSpeed="0.00" departDelay="0.00" arrival="422.00" arrivalLane="B3top1_1" arrivalPos="286.40" arrivalSpeed="12.69" duration="167.00" routeLength="1495.35" waitingTime="21.00" waitingCount="3" stopTime="0.00" timeLoss="55.31" rerouteNo="0" devices="tripinfo_42" vType="DEFAULT_VEHTYPE" speedFactor="0.97" vaporized=""/>
    <tripinfo id="59" depart="320.00" departLane="right3D3_0" departPos="5.10" departSpeed="0.00" departDelay="0.00" arrival="434.00" arrivalLane="D1right1_0" arrivalPos="286.40" arrivalSpeed="12.54" duration="114.00" routeLength="1197.66" waitingTime="8.00" waitingCount="2" stopTime="0.00" timeLoss="25.14" rerouteNo="0" devices="tripinfo_59" vType="DEFAULT_VEHTYPE" speedFactor="0.99" vaporized=""/>
    <tripinfo id="71" depart="381.00" departLane="left0A0_0" departPos="5.10" departSpeed="0.00" departDelay="0.00" arrival="435.00" arrivalLane="A0bottom0_0" arrivalPos="286.40" arrivalSpeed="12.83" duration="54.00" routeLength="576.73" waitingTime="1.00" waitingCount="1" stopTime="0.00" timeLoss="10.93" rerouteNo="0" devices="tripinfo_71" vType="DEFAULT_VEHTYPE" speedFactor="0.99" vaporized=""/>
    <tripinfo id="58" depart="318.00" departLane="top2C3_0" departPos="5.10" departSpeed="0.00" departDelay="0.00" arrival="442.00" arrivalLane="D2right2_0" arrivalPos="286.40" arrivalSpeed="13.00" duration="124.00" routeLength="1195.18" waitingTime="21.00" waitingCount="2" stopTime="0.00" timeLoss="36.62" rerouteNo="0" devices="tripinfo_58" vType="DEFAULT_VEHTYPE" speedFactor="1.00" vaporized=""/>
    <tripinfo id="52" depart="292.00" departLane="bottom1B0_0" departPos="5.10" departSpeed="0.00" departDelay="0.00" arrival="446.00" arrivalLane="C3top2_0" arrivalPos="286.40" arrivalSpeed="16.03" duration="154.00" routeLength="1782.72" waitingTime="17.00" waitingCount="3" stopTime="0.00" timeLoss="42.36" rerouteNo="0" devices="tripinfo_52" vType="DEFAULT_VEHTYPE" speedFactor="1.17" vaporized=""/>
    <tripinfo id="47" depart="280.00" departLane="top0A3_0" departPos="5.10" departSpeed="0.00" departDelay="0.00" arrival="449.00" arrivalLane="C0bottom2_0" arrivalPos="286.40" arrivalSpeed="13.68" duration="169.00" routeLength="2080.05" waitingTime="2.00" waitingCount="1" stopTime="0.00" timeLoss="19.49" rerouteNo="0" devices="tripinfo_47" vType="DEFAULT_VEHTYPE" speedFactor="1.01" vaporized=""/>
    <tripinfo id="49" depart="283.00" departLane="left1A1_0" departPos="5.10" departSpeed="0.00" departDelay="0.00" arrival="449.00" arrivalLane="D3top3_0" arrivalPos="286.40" arrivalSpeed="14.08" duration="166.00" routeLength="2095.69" waitingTime="9.00" waitingCount="1" stopTime="0.00" timeLoss="25.27" rerouteNo="0" devices="tripinfo_49" vType="DEFAULT_VEHTYPE" speedFactor="1.08" vaporized=""/>
    <tripinfo id="33" depart="202.00" departLane="top3D3_0" departPos="5.10" departSpeed="0.00" departDelay="0.00" arrival="450.00" arrivalLane="A0bottom0_0" arrivalPos="286.40" arrivalSpeed="12.05" duration="248.00" routeLength="2382.93" waitingTime="24.00" waitingCount="3" stopTime="0.00" timeLoss="58.22" rerouteNo="0" devices="tripinfo_33" vType="DEFAULT_VEHTYPE" speedFactor="0.91" vaporized=""/>
    <tripinfo id="64" depart="343.00" departLane="left2A2_0" departPos="5.10" departSpeed="0.00" departDelay="0.00" arrival="453.00" arrivalLane="A0left0_0" arrivalPos="286.40" arrivalSpeed="11.60" duration="110.00" routeLength="1161.43" waitingTime="1.00" waitingCount="1" stopTime="0.00" timeLoss="15.20" rerouteNo="0" devices="tripinfo_64" vType="DEFAULT_VEHTYPE" speedFactor="0.90" vaporized=""/>
    <tripinfo id="41" depart="249.00" departLane="right3D3_0" departPos="5.10" departSpeed="0.00" departDelay="0.00" arrival="456.00" arrivalLane="A1left1_0" arrivalPos="286.40" arrivalSpeed="16.81" duration="207.00" routeLength="2080.05" waitingTime="38.00" waitingCount="5" stopTime="0.00" timeLoss="82.39" rerouteNo="0" devices="tripinfo_41" vType="DEFAULT_VEHTYPE" speedFactor="1.22" vaporized=""/>
    <tripinfo id="69" depart="372.00" departLane="right3D3_0" departPos="5.10" departSpeed="0.00" departDelay="0.00" arrival="456.00" arrivalLane="D2right2_0" arrivalPos="286.40" arrivalSpeed="16.32" duration="84.00" routeLength="894.86" waitingTime="12.00" waitingCount="2" stopTime="0.00" timeLoss="29.70" rerouteNo="0" devices="tripinfo_69" vType="DEFAULT_VEHTYPE" speedFactor="1.22" vaporized=""/>
    <tripinfo id="45" depart="272.00" departLane="bottom0A0_0" departPos="5.10" departSpeed="0.00" departDelay="0.00" arrival="458.00" arrivalLane="C3top2_0" arrivalPos="286.40" arrivalSpeed="14.76" duration="186.00" routeLength="2082.76" waitingTime="16.00" waitingCount="4" stopTime="0.00" timeLoss="44.81" rerouteNo="0" devices="tripinfo_45" vType="DEFAULT_VEHTYPE" speedFactor="1.08" vaporized=""/>
    <tripinfo id="46" depart="276.00" departLane="right0D0_0" departPos="5.10" departSpeed="0.00" departDelay="0.00" arrival="467.00" arrivalLane="D0right0_0" arrivalPos="286.40" arrivalSpeed="14.94" duration="191.00" routeLength="1748.75" waitingTime="41.00" waitingCount="4" stopTime="0.00" timeLoss="75.28" rerouteNo="0" devices="tripinfo_46" vType="DEFAULT_VEHTYPE" speedFactor="1.11" vaporized=""/>
    <tripinfo id="62" depart="326.00" departLane="left2A2_0" departPos="5.10" departSpeed="0.00" departDelay="0.00" arrival="469.00" arrivalLane="D2right2_0" arrivalPos="286.40" arrivalSpeed="13.55" duration="143.00" routeLength="1495.58" waitingTime="13.00" waitingCount="2" stopTime="0.00" timeLoss="34.14" rerouteNo="0" devices="tripinfo_62" vType="DEFAULT_VEHTYPE" speedFactor="0.99" vaporized=""/>
    <tripinfo id="44" depart="260.00" departLane="left0A0_0" departPos="5.10" departSpeed="0.00" departDelay="0.00" arrival="475.00" arrivalLane="C3top2_0" arrivalPos="286.40" arrivalSpeed="12.75" duration="215.00" routeLength="2095.69" waitingTime="28.00" waitingCount="2" stopTime="0.00" timeLoss="50.22" rerouteNo="0" devices="tripinfo_44" vType="DEFAULT_VEHTYPE" speedFactor="0.92" vaporized=""/>
    <tripinfo id="57" depart="312.00" departLane="bottom0A0_0" departPos="5.10" departSpeed="0.00" departDelay="0.00" arrival="479.00" arrivalLane="B3top1_0" arrivalPos="286.40" arrivalSpeed="13.51" duration="167.00" routeLength="1782.72" waitingTime="20.00" waitingCount="2" stopTime="0.00" timeLoss="40.99" rerouteNo="0" devices="tripinfo_57" vType="DEFAULT_VEHTYPE" speedFactor="1.03" vaporized=""/>
    <tripinfo id="63" depart="332.00" departLane="top1B3_0" departPos="5.10" departSpeed="0.00" departDelay="0.00" arrival="480.00" arrivalLane="D3top3_0" arrivalPos="286.40" arrivalSpeed="12.33" duration="148.00" routeLength="1197.66" waitingTime="34.00" waitingCount="3" stopTime="0.00" timeLoss="57.65" rerouteNo="0" devices="tripinfo_63" vType="DEFAULT_VEHTYPE" speedFactor="0.97" vaporized=""/>
    <tripinfo id="56" depart="305.00" departLane="right3D3_0" departPos="5.10" departSpeed="0.00" departDelay="0.00" arrival="487.00" arrivalLane="A2left2_1" arrivalPos="286.40" arrivalSpeed="16.71" duration="182.00" routeLength="1782.59" waitingTime="27.00" waitingCount="4" stopTime="0.00" timeLoss="74.67" rerouteNo="0" devices="tripinfo_56" vType="DEFAULT_VEHTYPE" speedFactor="1.21" vaporized=""/>
    <tripinfo id="54" depart="293.00" departLane="right3D3_0" departPos="5.10" departSpeed="0.00" departDelay="0.00" arrival="489.00" arrivalLane="A2left2_0" arrivalPos="286.40" arrivalSpeed="13.32" duration="196.00" routeLength="1782.59" waitingTime="35.00" waitingCount="4" stopTime="0.00" timeLoss="64.81" rerouteNo="0" devices="tripinfo_54" vType="DEFAULT_VEHTYPE" speedFactor="0.99" vaporized=""/>
    <tripinfo id="39" depart="244.00" departLane="bottom2C0_0" departPos="5.10" departSpeed="0.00" departDelay="0.00" arrival="491.00" arrivalLane="A3left3_0" arrivalPos="286.40" arrivalSpeed="12.98" duration="247.00" routeLength="2095.69" waitingTime="43.00" waitingCount="5" stopTime="0.00" timeLoss="85.46" rerouteNo="0" devices="tripinfo_39" vType="DEFAULT_VEHTYPE" speedFactor="0.94" vaporized=""/>
    <tripinfo id="73" depart="384.00" departLane="right3D3_0" departPos="5.10" departSpeed="0.00" departDelay="0.00" arrival="494.00" arrivalLane="D0bottom3_0" arrivalPos="286.40" arrivalSpeed="15.17" duration="110.00" routeLength="1495.35" waitingTime="3.00" waitingCount="1" stopTime="0.00" timeLoss="18.26" rerouteNo="0" devices="tripinfo_73" vType="DEFAULT_VEHTYPE" speedFactor="1.18" vaporized=""/>
    <tripinfo id="61" depart="326.00" departLane="top1B3_0" departPos="5.10" departSpeed="0.00" departDelay="0.00" arrival="511.00" arrivalLane="D0bottom3_0" arrivalPos="286.40" arrivalSpeed="14.12" duration="185.00" routeLength="2080.05" waitingTime="14.00" waitingCount="2" stopTime="0.00" timeLoss="36.30" rerouteNo="0" devices="tripinfo_61" vType="DEFAULT_VEHTYPE" speedFactor="1.02" vaporized=""/>
    <tripinfo id="66" depart="349.00" departLane="left2A2_0" departPos="5.10" departSpeed="0.00" departDelay="0.00" arrival="519.00" arrivalLane="D3top3_0" arrivalPos="286.40" arrivalSpeed="14.39" duration="170.00" routeLength="1795.52" waitingTime="24.00" waitingCount="3" stopTime="0.00" timeLoss="47.33" rerouteNo="0" devices="tripinfo_66" vType="DEFAULT_VEHTYPE" speedFactor="1.06" vaporized=""/>
    <tripinfo id="65" depart="346.00" departLane="bottom1B0_0" departPos="5.10" departSpeed="0.00" departDelay="0.00" arrival="521.00" arrivalLane="A3top0_0" arrivalPos="286.40" arrivalSpeed="13.67" duration="175.00" routeLength="1782.59" waitingTime="23.00" waitingCount="3" stopTime="0.00" timeLoss="48.90" rerouteNo="0" devices="tripinfo_65" vType="DEFAULT_VEHTYPE" speedFactor="1.03" vaporized=""/>
    <tripinfo id="68" depart="368.00" departLane="top2C3_0" departPos="5.10" departSpeed="0.00" departDelay="0.00" arrival="533.00" arrivalLane="A2left2_0" arrivalPos="286.40" arrivalSpeed="11.56" duration="165.00" routeLength="1479.94" waitingTime="13.00" waitingCount="3" stopTime="0.00" timeLoss="37.15" rerouteNo="0" devices="tripinfo_68" vType="DEFAULT_VEHTYPE" speedFactor="0.84" vaporized=""/>
    <tripinfo id="55" depart="297.00" departLane="right0D0_0" departPos="5.10" departSpeed="0.00" departDelay="0.00" arrival="540.00" arrivalLane="A3left3_0" arrivalPos="286.40" arrivalSpeed="12.53" duration="243.00" routeLength="2382.93" waitingTime="19.00" waitingCount="3" stopTime="0.00" timeLoss="61.93" rerouteNo="0" devices="tripinfo_55" vType="DEFAULT_VEHTYPE" speedFactor="0.95" vaporized=""/>