<?xml version="1.0" encoding="UTF-8"?>

<!-- generated on 12/19/21 16:53:12 by Eclipse SUMO sumo Version 1.7.0
<configuration xmlns:xsi="http://www.w3.org/2001/XMLSchema-instance" xsi:noNamespaceSchemaLocation="http://sumo.dlr.de/xsd/sumoConfiguration.xsd">

    <input>
        <net-file value="C:\Users\longs\Desktop\RESCO-main\environments\grid4x4\grid4x4.net.xml"/>
        <route-files value="C:\Users\longs\Desktop\RESCO-main\environments\grid4x4\grid4x4_79.rou.xml"/>
    </input>

    <output>
        <tripinfo-output value="C:\Users\longs\Desktop\RESCO-main\logs\IDQN-tr1-grid4x4-0-drqlong-delaydiff_pressure05\tripinfo_79.xml"/>
        <tripinfo-output.write-unfinished value="true"/>
    </output>

    <processing>
        <time-to-teleport value="-1"/>
    </processing>

    <report>
        <no-warnings value="true"/>
        <no-step-log value="true"/>
    </report>

    <traci_server>
        <remote-port value="55534"/>
    </traci_server>

    <random_number>
        <random value="true"/>
    </random_number>

</configuration>
-->

<tripinfos xmlns:xsi="http://www.w3.org/2001/XMLSchema-instance" xsi:noNamespaceSchemaLocation="http://sumo.dlr.de/xsd/tripinfo_file.xsd">
    <tripinfo id="13" depart="57.00" departLane="left0A0_0" departPos="5.10" departSpeed="0.00" departDelay="0.00" arrival="117.00" arrivalLane="A0bottom0_0" arrivalPos="286.40" arrivalSpeed="12.08" duration="60.00" routeLength="576.73" waitingTime="1.00" waitingCount="1" stopTime="0.00" timeLoss="11.41" rerouteNo="0" devices="tripinfo_13" vType="DEFAULT_VEHTYPE" speedFactor="0.87" vaporized=""/>
    <tripinfo id="10" depart="46.00" departLane="right1D1_0" departPos="5.10" departSpeed="0.00" departDelay="0.00" arrival="140.00" arrivalLane="D0bottom3_0" arrivalPos="286.40" arrivalSpeed="13.19" duration="94.00" routeLength="895.01" waitingTime="13.00" waitingCount="1" stopTime="0.00" timeLoss="27.90" rerouteNo="0" devices="tripinfo_10" vType="DEFAULT_VEHTYPE" speedFactor="0.99" vaporized=""/>
    <tripinfo id="14" depart="58.00" departLane="bottom2C0_0" departPos="5.10" departSpeed="0.00" departDelay="0.00" arrival="146.00" arrivalLane="B0bottom1_0" arrivalPos="286.40" arrivalSpeed="15.43" duration="88.00" routeLength="894.86" waitingTime="14.00" waitingCount="2" stopTime="0.00" timeLoss="31.93" rerouteNo="0" devices="tripinfo_14" vType="DEFAULT_VEHTYPE" speedFactor="1.17" vaporized=""/>
    <tripinfo id="2" depart="14.00" departLane="right2D2_0" departPos="5.10" departSpeed="0.00" departDelay="0.00" arrival="149.00" arrivalLane="B3top1_0" arrivalPos="286.40" arrivalSpeed="12.94" duration="135.00" routeLength="1479.94" waitingTime="8.00" waitingCount="1" stopTime="0.00" timeLoss="29.18" rerouteNo="0" devices="tripinfo_2" vType="DEFAULT_VEHTYPE" speedFactor="1.02" vaporized=""/>
    <tripinfo id="4" depart="19.00" departLane="left1A1_0" departPos="5.10" departSpeed="0.00" departDelay="0.00" arrival="160.00" arrivalLane="C0bottom2_0" arrivalPos="286.40" arrivalSpeed="14.31" duration="141.00" routeLength="1479.94" waitingTime="21.00" waitingCount="2" stopTime="0.00" timeLoss="40.80" rerouteNo="0" devices="tripinfo_4" vType="DEFAULT_VEHTYPE" speedFactor="1.07" vaporized=""/>
    <tripinfo id="0" depart="6.00" departLane="right2D2_0" departPos="5.10" departSpeed="0.00" departDelay="0.00" arrival="180.00" arrivalLane="A3top0_0" arrivalPos="286.40" arrivalSpeed="12.87" duration="174.00" routeLength="1780.11" waitingTime="13.00" waitingCount="3" stopTime="0.00" timeLoss="39.51" rerouteNo="0" devices="tripinfo_0" vType="DEFAULT_VEHTYPE" speedFactor="0.96" vaporized=""/>
    <tripinfo id="16" depart="66.00" departLane="top0A3_0" departPos="5.10" departSpeed="0.00" departDelay="0.00" arrival="181.00" arrivalLane="B3top1_0" arrivalPos="286.40" arrivalSpeed="11.77" duration="115.00" routeLength="894.86" waitingTime="28.00" waitingCount="2" stopTime="0.00" timeLoss="44.43" rerouteNo="0" devices="tripinfo_16" vType="DEFAULT_VEHTYPE" speedFactor="0.94" vaporized=""/>
    <tripinfo id="1" depart="12.00" departLane="top1B3_0" departPos="5.10" departSpeed="0.00" departDelay="0.00" arrival="182.00" arrivalLane="D2right2_0" arrivalPos="286.40" arrivalSpeed="13.15" duration="170.00" routeLength="1495.35" waitingTime="36.00" waitingCount="3" stopTime="0.00" timeLoss="61.21" rerouteNo="0" devices="tripinfo_1" vType="DEFAULT_VEHTYPE" speedFactor="1.00" vaporized=""/>
    <tripinfo id="18" depart="87.00" departLane="top2C3_0" departPos="5.10" departSpeed="0.00" departDelay="0.00" arrival="186.00" arrivalLane="A3top0_0" arrivalPos="286.40" arrivalSpeed="13.13" duration="99.00" routeLength="1161.43" waitingTime="1.00" waitingCount="1" stopTime="0.00" timeLoss="14.32" rerouteNo="0" devices="tripinfo_18" vType="DEFAULT_VEHTYPE" speedFactor="1.01" vaporized=""/>
    <tripinfo id="25" depart="116.00" departLane="bottom0A0_0" departPos="5.10" departSpeed="0.00" departDelay="0.00" arrival="191.00" arrivalLane="B0bottom1_0" arrivalPos="286.40" arrivalSpeed="14.13" duration="75.00" routeLength="858.56" waitingTime="1.00" waitingCount="1" stopTime="0.00" timeLoss="14.51" rerouteNo="0" devices="tripinfo_25" vType="DEFAULT_VEHTYPE" speedFactor="1.05" vaporized=""/>
    <tripinfo id="11" depart="46.00" departLane="left3A3_0" departPos="5.10" departSpeed="0.00" departDelay="0.00" arrival="192.00" arrivalLane="A0bottom0_0" arrivalPos="286.40" arrivalSpeed="11.30" duration="146.00" routeLength="1479.94" waitingTime="7.00" waitingCount="2" stopTime="0.00" timeLoss="25.96" rerouteNo="0" devices="tripinfo_11" vType="DEFAULT_VEHTYPE" speedFactor="0.90" vaporized=""/>
    <tripinfo id="24" depart="116.00" departLane="left3A3_0" departPos="5.10" departSpeed="0.00" departDelay="0.00" arrival="192.00" arrivalLane="A2left2_0" arrivalPos="286.40" arrivalSpeed="12.27" duration="76.00" routeLength="858.56" waitingTime="0.00" waitingCount="0" stopTime="0.00" timeLoss="10.22" rerouteNo="0" devices="tripinfo_24" vType="DEFAULT_VEHTYPE" speedFactor="0.97" vaporized=""/>
    <tripinfo id="6" depart="27.00" departLane="right0D0_0" departPos="5.10" departSpeed="0.00" departDelay="0.00" arrival="197.00" arrivalLane="C3top2_0" arrivalPos="286.40" arrivalSpeed="14.40" duration="170.00" routeLength="1780.11" waitingTime="16.00" waitingCount="3" stopTime="0.00" timeLoss="47.90" rerouteNo="0" devices="tripinfo_6" vType="DEFAULT_VEHTYPE" speedFactor="1.06" vaporized=""/>
    <tripinfo id="29" depart="126.00" departLane="left2A2_0" departPos="5.10" departSpeed="0.00" departDelay="0.00" arrival="199.00" arrivalLane="A3left3_0" arrivalPos="286.40" arrivalSpeed="13.99" duration="73.00" routeLength="894.86" waitingTime="2.00" waitingCount="1" stopTime="0.00" timeLoss="12.27" rerouteNo="0" devices="tripinfo_29" vType="DEFAULT_VEHTYPE" speedFactor="1.08" vaporized=""/>
    <tripinfo id="5" depart="22.00" departLane="right0D0_0" departPos="5.10" departSpeed="0.00" departDelay="0.00" arrival="200.00" arrivalLane="D3top3_0" arrivalPos="286.40" arrivalSpeed="12.20" duration="178.00" routeLength="1479.94" waitingTime="41.00" waitingCount="3" stopTime="0.00" timeLoss="64.59" rerouteNo="0" devices="tripinfo_5" vType="DEFAULT_VEHTYPE" speedFactor="0.95" vaporized=""/>
    <tripinfo id="9" depart="45.00" departLane="top2C3_0" departPos="5.10" departSpeed="0.00" departDelay="0.00" arrival="209.00" arrivalLane="C3top2_0" arrivalPos="286.40" arrivalSpeed="13.08" duration="164.00" routeLength="1748.75" waitingTime="12.00" waitingCount="2" stopTime="0.00" timeLoss="34.18" rerouteNo="0" devices="tripinfo_9" vType="DEFAULT_VEHTYPE" speedFactor="0.98" vaporized=""/>
    <tripinfo id="17" depart="68.00" departLane="left0A0_0" departPos="5.10" departSpeed="0.00" departDelay="0.00" arrival="217.00" arrivalLane="A3left3_0" arrivalPos="286.40" arrivalSpeed="13.88" duration="149.00" routeLength="1497.83" waitingTime="26.00" waitingCount="3" stopTime="0.00" timeLoss="48.24" rerouteNo="0" devices="tripinfo_17" vType="DEFAULT_VEHTYPE" speedFactor="1.08" vaporized=""/>
    <tripinfo id="20" depart="96.00" departLane="bottom2C0_0" departPos="5.10" departSpeed="0.00" departDelay="0.00" arrival="219.00" arrivalLane="C3top2_0" arrivalPos="286.40" arrivalSpeed="13.09" duration="123.00" routeLength="1495.58" waitingTime="2.00" waitingCount="1" stopTime="0.00" timeLoss="17.66" rerouteNo="0" devices="tripinfo_20" vType="DEFAULT_VEHTYPE" speedFactor="1.03" vaporized=""/>
    <tripinfo id="21" depart="99.00" departLane="left0A0_0" departPos="5.10" departSpeed="0.00" departDelay="0.00" arrival="220.00" arrivalLane="D0bottom3_0" arrivalPos="286.40" arrivalSpeed="16.04" duration="121.00" routeLength="1477.24" waitingTime="8.00" waitingCount="2" stopTime="0.00" timeLoss="31.69" rerouteNo="0" devices="tripinfo_21" vType="DEFAULT_VEHTYPE" speedFactor="1.20" vaporized=""/>
    <tripinfo id="33" depart="138.00" departLane="bottom1B0_0" departPos="5.10" departSpeed="0.00" departDelay="2.00" arrival="221.00" arrivalLane="C0bottom2_0" arrivalPos="286.40" arrivalSpeed="12.86" duration="83.00" routeLength="858.56" waitingTime="2.00" waitingCount="2" stopTime="0.00" timeLoss="15.25" rerouteNo="0" devices="tripinfo_33" vType="DEFAULT_VEHTYPE" speedFactor="0.93" vaporized=""/>
    <tripinfo id="12" depart="52.00" departLane="top2C3_0" departPos="5.10" departSpeed="0.00" departDelay="0.00" arrival="227.00" arrivalLane="A0left0_0" arrivalPos="286.40" arrivalSpeed="14.48" duration="175.00" routeLength="2080.28" waitingTime="11.00" waitingCount="2" stopTime="0.00" timeLoss="36.08" rerouteNo="0" devices="tripinfo_12" vType="DEFAULT_VEHTYPE" speedFactor="1.08" vaporized=""/>
    <tripinfo id="7" depart="28.00" departLane="left0A0_0" departPos="5.10" departSpeed="0.00" departDelay="0.00" arrival="229.00" arrivalLane="B3top1_0" arrivalPos="286.40" arrivalSpeed="13.50" duration="201.00" routeLength="1795.52" waitingTime="39.00" waitingCount="4" stopTime="0.00" timeLoss="73.87" rerouteNo="0" devices="tripinfo_7" vType="DEFAULT_VEHTYPE" speedFactor="1.03" vaporized=""/>
    <tripinfo id="15" depart="65.00" departLane="right1D1_0" departPos="5.10" departSpeed="0.00" departDelay="0.00" arrival="232.00" arrivalLane="B3top1_0" arrivalPos="286.40" arrivalSpeed="13.21" duration="167.00" routeLength="1780.11" waitingTime="11.00" waitingCount="2" stopTime="0.00" timeLoss="35.86" rerouteNo="0" devices="tripinfo_15" vType="DEFAULT_VEHTYPE" speedFactor="0.99" vaporized=""/>
    <tripinfo id="28" depart="123.00" departLane="bottom3D0_0" departPos="5.10" departSpeed="0.00" departDelay="0.00" arrival="236.00" arrivalLane="D2right2_0" arrivalPos="286.40" arrivalSpeed="13.64" duration="113.00" routeLength="1177.07" waitingTime="13.00" waitingCount="2" stopTime="0.00" timeLoss="30.34" rerouteNo="0" devices="tripinfo_28" vType="DEFAULT_VEHTYPE" speedFactor="1.03" vaporized=""/>
    <tripinfo id="8" depart="41.00" departLane="bottom1B0_0" departPos="5.10" departSpeed="0.00" departDelay="0.00" arrival="240.00" arrivalLane="A3top0_0" arrivalPos="286.40" arrivalSpeed="13.24" duration="199.00" routeLength="1782.59" waitingTime="37.00" waitingCount="4" stopTime="0.00" timeLoss="65.42" rerouteNo="0" devices="tripinfo_8" vType="DEFAULT_VEHTYPE" speedFactor="0.97" vaporized=""/>
    <tripinfo id="22" depart="106.00" departLane="right2D2_0" departPos="5.10" departSpeed="0.00" departDelay="0.00" arrival="250.00" arrivalLane="D0right0_0" arrivalPos="286.40" arrivalSpeed="13.38" duration="144.00" routeLength="1197.66" waitingTime="31.00" waitingCount="3" stopTime="0.00" timeLoss="53.63" rerouteNo="0" devices="tripinfo_22" vType="DEFAULT_VEHTYPE" speedFactor="0.97" vaporized=""/>
    <tripinfo id="19" depart="92.00" departLane="right2D2_0" departPos="5.10" departSpeed="0.00" departDelay="0.00" arrival="257.00" arrivalLane="A3top0_0" arrivalPos="286.40" arrivalSpeed="15.52" duration="165.00" routeLength="1780.11" waitingTime="20.00" waitingCount="4" stopTime="0.00" timeLoss="50.14" rerouteNo="0" devices="tripinfo_19" vType="DEFAULT_VEHTYPE" speedFactor="1.13" vaporized=""/>
    <tripinfo id="32" depart="135.00" departLane="bottom1B0_0" departPos="5.10" departSpeed="0.00" departDelay="0.00" arrival="260.00" arrivalLane="A1left1_0" arrivalPos="286.40" arrivalSpeed="13.19" duration="125.00" routeLength="1195.18" waitingTime="16.00" waitingCount="2" stopTime="0.00" timeLoss="34.51" rerouteNo="0" devices="tripinfo_32" vType="DEFAULT_VEHTYPE" speedFactor="0.96" vaporized=""/>
    <tripinfo id="3" depart="17.00" departLane="top0A3_0" departPos="5.10" departSpeed="0.00" departDelay="0.00" arrival="268.00" arrivalLane="D0right0_0" arrivalPos="286.40" arrivalSpeed="14.08" duration="251.00" routeLength="2395.86" waitingTime="51.00" waitingCount="5" stopTime="0.00" timeLoss="85.40" rerouteNo="0" devices="tripinfo_3" vType="DEFAULT_VEHTYPE" speedFactor="1.05" vaporized=""/>
    <tripinfo id="26" depart="120.00" departLane="bottom1B0_0" departPos="5.10" departSpeed="0.00" departDelay="0.00" arrival="268.00" arrivalLane="B3top1_0" arrivalPos="286.40" arrivalSpeed="14.05" duration="148.00" routeLength="1495.58" waitingTime="23.00" waitingCount="3" stopTime="0.00" timeLoss="44.72" rerouteNo="0" devices="tripinfo_26" vType="DEFAULT_VEHTYPE" speedFactor="1.05" vaporized=""/>
    <tripinfo id="23" depart="106.00" departLane="top3D3_0" departPos="5.10" departSpeed="0.00" departDelay="0.00" arrival="279.00" arrivalLane="D0bottom3_0" arrivalPos="286.40" arrivalSpeed="13.22" duration="173.00" routeLength="1495.58" waitingTime="41.00" waitingCount="3" stopTime="0.00" timeLoss="64.42" rerouteNo="0" devices="tripinfo_23" vType="DEFAULT_VEHTYPE" speedFactor="0.99" vaporized=""/>
    <tripinfo id="36" depart="147.00" departLane="top0A3_0" departPos="5.10" departSpeed="0.00" departDelay="0.00" arrival="279.00" arrivalLane="A1left1_0" arrivalPos="286.40" arrivalSpeed="11.19" duration="132.00" routeLength="1177.07" waitingTime="17.00" waitingCount="2" stopTime="0.00" timeLoss="35.90" rerouteNo="0" devices="tripinfo_36" vType="DEFAULT_VEHTYPE" speedFactor="0.89" vaporized=""/>
    <tripinfo id="38" depart="155.00" departLane="bottom2C0_0" departPos="5.10" departSpeed="0.00" departDelay="0.00" arrival="281.00" arrivalLane="A0left0_0" arrivalPos="286.40" arrivalSpeed="12.27" duration="126.00" routeLength="1195.18" waitingTime="15.00" waitingCount="2" stopTime="0.00" timeLoss="32.25" rerouteNo="0" devices="tripinfo_38" vType="DEFAULT_VEHTYPE" speedFactor="0.93" vaporized=""/>
    <tripinfo id="42" depart="171.00" departLane="bottom2C0_0" departPos="5.10" departSpeed="0.00" departDelay="0.00" arrival="286.00" arrivalLane="A0left0_0" arrivalPos="286.40" arrivalSpeed="12.25" duration="115.00" routeLength="1195.18" waitingTime="7.00" waitingCount="1" stopTime="0.00" timeLoss="19.52" rerouteNo="0" devices="tripinfo_42" vType="DEFAULT_VEHTYPE" speedFactor="0.91" vaporized=""/>
    <tripinfo id="30" depart="132.00" departLane="top3D3_0" departPos="5.10" departSpeed="0.00" departDelay="0.00" arrival="300.00" arrivalLane="D0bottom3_0" arrivalPos="286.40" arrivalSpeed="12.99" duration="168.00" routeLength="1495.58" waitingTime="30.00" waitingCount="3" stopTime="0.00" timeLoss="54.37" rerouteNo="0" devices="tripinfo_30" vType="DEFAULT_VEHTYPE" speedFactor="0.95" vaporized=""/>
    <tripinfo id="45" depart="198.00" departLane="bottom1B0_0" departPos="5.10" departSpeed="0.00" departDelay="0.00" arrival="306.00" arrivalLane="D0bottom3_0" arrivalPos="286.40" arrivalSpeed="13.83" duration="108.00" routeLength="1161.43" waitingTime="2.00" waitingCount="2" stopTime="0.00" timeLoss="24.38" rerouteNo="0" devices="tripinfo_45" vType="DEFAULT_VEHTYPE" speedFactor="1.02" vaporized=""/>
    <tripinfo id="31" depart="133.00" departLane="left3A3_0" departPos="5.10" departSpeed="0.00" departDelay="0.00" arrival="309.00" arrivalLane="A3left3_0" arrivalPos="286.40" arrivalSpeed="13.88" duration="176.00" routeLength="1748.75" waitingTime="19.00" waitingCount="4" stopTime="0.00" timeLoss="48.86" rerouteNo="0" devices="tripinfo_31" vType="DEFAULT_VEHTYPE" speedFactor="1.01" vaporized=""/>
    <tripinfo id="34" depart="144.00" departLane="bottom3D0_0" departPos="5.10" departSpeed="0.00" departDelay="0.00" arrival="323.00" arrivalLane="A0bottom0_0" arrivalPos="286.40" arrivalSpeed="11.83" duration="179.00" routeLength="1497.83" waitingTime="29.00" waitingCount="3" stopTime="0.00" timeLoss="50.99" rerouteNo="0" devices="tripinfo_34" vType="DEFAULT_VEHTYPE" speedFactor="0.86" vaporized=""/>
    <tripinfo id="40" depart="165.00" departLane="right2D2_0" departPos="5.10" departSpeed="0.00" departDelay="0.00" arrival="324.00" arrivalLane="B0bottom1_0" arrivalPos="286.40" arrivalSpeed="18.29" duration="159.00" routeLength="1795.52" waitingTime="26.00" waitingCount="4" stopTime="0.00" timeLoss="60.75" rerouteNo="0" devices="tripinfo_40" vType="DEFAULT_VEHTYPE" speedFactor="1.32" vaporized=""/>
    <tripinfo id="47" depart="221.00" departLane="bottom2C0_0" departPos="5.10" departSpeed="0.00" departDelay="0.00" arrival="328.00" arrivalLane="D1right1_0" arrivalPos="286.40" arrivalSpeed="13.37" duration="107.00" routeLength="1179.77" waitingTime="11.00" waitingCount="1" stopTime="0.00" timeLoss="25.30" rerouteNo="0" devices="tripinfo_47" vType="DEFAULT_VEHTYPE" speedFactor="1.05" vaporized=""/>
    <tripinfo id="44" depart="194.00" departLane="bottom0A0_0" departPos="5.10" departSpeed="0.00" departDelay="0.00" arrival="329.00" arrivalLane="D0bottom3_0" arrivalPos="286.40" arrivalSpeed="12.16" duration="135.00" routeLength="1461.60" waitingTime="3.00" waitingCount="1" stopTime="0.00" timeLoss="22.25" rerouteNo="0" devices="tripinfo_44" vType="DEFAULT_VEHTYPE" speedFactor="0.95" vaporized=""/>
    <tripinfo id="35" depart="146.00" departLane="left2A2_0" departPos="5.10" departSpeed="0.00" departDelay="0.00" arrival="331.00" arrivalLane="A2left2_0" arrivalPos="286.40" arrivalSpeed="12.48" duration="185.00" routeLength="1748.75" waitingTime="17.00" waitingCount="4" stopTime="0.00" timeLoss="46.65" rerouteNo="0" devices="tripinfo_35" vType="DEFAULT_VEHTYPE" speedFactor="0.93" vaporized=""/>
    <tripinfo id="27" depart="122.00" departLane="right3D3_0" departPos="5.10" departSpeed="0.00" departDelay="0.00" arrival="336.00" arrivalLane="D3right3_0" arrivalPos="286.40" arrivalSpeed="9.54" duration="214.00" routeLength="1745.91" waitingTime="10.00" waitingCount="4" stopTime="0.00" timeLoss="37.90" rerouteNo="0" devices="tripinfo_27" vType="DEFAULT_VEHTYPE" speedFactor="0.73" vaporized=""/>
    <tripinfo id="46" depart="200.00" departLane="top3D3_0" departPos="5.10" departSpeed="0.00" departDelay="0.00" arrival="337.00" arrivalLane="D0right0_0" arrivalPos="286.40" arrivalSpeed="15.09" duration="137.00" routeLength="1498.06" waitingTime="14.00" waitingCount="3" stopTime="0.00" timeLoss="37.21" rerouteNo="0" devices="tripinfo_46" vType="DEFAULT_VEHTYPE" speedFactor="1.09" vaporized=""/>
    <tripinfo id="49" depart="224.00" departLane="left0A0_0" departPos="5.10" departSpeed="0.00" departDelay="0.00" arrival="350.00" arrivalLane="A2left2_0" arrivalPos="286.40" arrivalSpeed="12.81" duration="126.00" routeLength="1197.66" waitingTime="19.00" waitingCount="2" stopTime="0.00" timeLoss="36.73" rerouteNo="0" devices="tripinfo_49" vType="DEFAULT_VEHTYPE" speedFactor="0.98" vaporized=""/>
    <tripinfo id="55" depart="252.00" departLane="left0A0_0" departPos="5.10" departSpeed="0.00" departDelay="0.00" arrival="350.00" arrivalLane="A1left1_0" arrivalPos="286.40" arrivalSpeed="12.08" duration="98.00" routeLength="894.86" waitingTime="16.00" waitingCount="2" stopTime="0.00" timeLoss="28.77" rerouteNo="0" devices="tripinfo_55" vType="DEFAULT_VEHTYPE" speedFactor="0.94" vaporized=""/>
    <tripinfo id="48" depart="223.00" departLane="left3A3_0" departPos="5.10" departSpeed="0.00" departDelay="0.00" arrival="357.00" arrivalLane="D3top3_0" arrivalPos="286.40" arrivalSpeed="15.41" duration="134.00" routeLength="1498.06" waitingTime="21.00" waitingCount="2" stopTime="0.00" timeLoss="39.73" rerouteNo="0" devices="tripinfo_48" vType="DEFAULT_VEHTYPE" speedFactor="1.16" vaporized=""/>
    <tripinfo id="66" depart="279.00" departLane="left3A3_0" departPos="5.10" departSpeed="0.00" departDelay="0.00" arrival="375.00" arrivalLane="A1left1_0" arrivalPos="286.40" arrivalSpeed="16.49" duration="96.00" routeLength="1161.43" waitingTime="7.00" waitingCount="1" stopTime="0.00" timeLoss="25.48" rerouteNo="0" devices="tripinfo_66" vType="DEFAULT_VEHTYPE" speedFactor="1.22" vaporized=""/>
    <tripinfo id="56" depart="254.00" departLane="bottom2C0_0" departPos="5.10" departSpeed="0.00" departDelay="0.00" arrival="379.00" arrivalLane="A0left0_0" arrivalPos="286.40" arrivalSpeed="12.90" duration="125.00" routeLength="1195.18" waitingTime="22.00" waitingCount="2" stopTime="0.00" timeLoss="39.04" rerouteNo="0" devices="tripinfo_56" vType="DEFAULT_VEHTYPE" speedFactor="1.01" vaporized=""/>
    <tripinfo id="39" depart="159.00" departLane="left2A2_0" departPos="5.10" departSpeed="0.00" departDelay="0.00" arrival="383.00" arrivalLane="D0right0_0" arrivalPos="286.40" arrivalSpeed="11.10" duration="224.00" routeLength="2082.76" waitingTime="21.00" waitingCount="2" stopTime="0.00" timeLoss="52.39" rerouteNo="0" devices="tripinfo_39" vType="DEFAULT_VEHTYPE" speedFactor="0.88" vaporized=""/>
    <tripinfo id="59" depart="259.00" departLane="top0A3_0" departPos="5.10" departSpeed="0.00" departDelay="0.00" arrival="387.00" arrivalLane="D3right3_0" arrivalPos="286.40" arrivalSpeed="15.48" duration="128.00" routeLength="1495.35" waitingTime="14.00" waitingCount="2" stopTime="0.00" timeLoss="30.82" rerouteNo="0" devices="tripinfo_59" vType="DEFAULT_VEHTYPE" speedFactor="1.12" vaporized=""/>
    <tripinfo id="37" depart="154.00" departLane="right3D3_0" departPos="5.10" departSpeed="0.00" departDelay="0.00" arrival="388.00" arrivalLane="B0bottom1_0" arrivalPos="286.40" arrivalSpeed="13.80" duration="234.00" routeLength="2095.69" waitingTime="55.00" waitingCount="5" stopTime="0.00" timeLoss="92.46" rerouteNo="0" devices="tripinfo_37" vType="DEFAULT_VEHTYPE" speedFactor="1.07" vaporized=""/>
    <tripinfo id="41" depart="168.00" departLane="right2D2_0" departPos="5.10" departSpeed="0.00" departDelay="1.00" arrival="391.00" arrivalLane="A0bottom0_0" arrivalPos="286.40" arrivalSpeed="11.56" duration="223.00" routeLength="2095.69" waitingTime="17.00" waitingCount="2" stopTime="0.00" timeLoss="46.69" rerouteNo="0" devices="tripinfo_41" vType="DEFAULT_VEHTYPE" speedFactor="0.86" vaporized=""/>
    <tripinfo id="52" depart="238.00" departLane="right1D1_0" departPos="5.10" departSpeed="0.00" departDelay="0.00" arrival="393.00" arrivalLane="B0bottom1_0" arrivalPos="286.40" arrivalSpeed="12.01" duration="155.00" routeLength="1495.35" waitingTime="17.00" waitingCount="3" stopTime="0.00" timeLoss="39.30" rerouteNo="0" devices="tripinfo_52" vType="DEFAULT_VEHTYPE" speedFactor="0.94" vaporized=""/>
    <tripinfo id="50" depart="236.00" departLane="left2A2_0" departPos="5.10" departSpeed="0.00" departDelay="0.00" arrival="398.00" arrivalLane="C3top2_0" arrivalPos="286.40" arrivalSpeed="14.54" duration="162.00" routeLength="1495.35" waitingTime="36.00" waitingCount="3" stopTime="0.00" timeLoss="60.11" rerouteNo="0" devices="tripinfo_50" vType="DEFAULT_VEHTYPE" speedFactor="1.07" vaporized=""/>
    <tripinfo id="72" depart="314.00" departLane="top3D3_0" departPos="5.10" departSpeed="0.00" departDelay="0.00" arrival="407.00" arrivalLane="C3top2_0" arrivalPos="286.40" arrivalSpeed="11.82" duration="93.00" routeLength="858.56" waitingTime="6.00" waitingCount="2" stopTime="0.00" timeLoss="22.22" rerouteNo="0" devices="tripinfo_72" vType="DEFAULT_VEHTYPE" speedFactor="0.89" vaporized=""/>
    <tripinfo id="51" depart="236.00" departLane="top0A3_0" departPos="5.10" departSpeed="0.00" departDelay="0.00" arrival="409.00" arrivalLane="D2right2_1" arrivalPos="286.40" arrivalSpeed="12.38" duration="173.00" routeLength="1795.52" waitingTime="10.00" waitingCount="2" stopTime="0.00" timeLoss="36.10" rerouteNo="0" devices="tripinfo_51" vType="DEFAULT_VEHTYPE" speedFactor="0.95" vaporized=""/>
    <tripinfo id="43" depart="176.00" departLane="bottom0A0_0" departPos="5.10" departSpeed="0.00" departDelay="0.00" arrival="410.00" arrivalLane="D2right2_0" arrivalPos="286.40" arrivalSpeed="11.85" duration="234.00" routeLength="2080.28" waitingTime="21.00" waitingCount="4" stopTime="0.00" timeLoss="57.63" rerouteNo="0" devices="tripinfo_43" vType="DEFAULT_VEHTYPE" speedFactor="0.86" vaporized=""/>
    <tripinfo id="53" depart="240.00" departLane="right0D0_0" departPos="5.10" departSpeed="0.00" departDelay="0.00" arrival="410.00" arrivalLane="A0left0_0" arrivalPos="286.40" arrivalSpeed="12.67" duration="170.00" routeLength="1495.58" waitingTime="32.00" waitingCount="3" stopTime="0.00" timeLoss="55.43" rerouteNo="0" devices="tripinfo_53" vType="DEFAULT_VEHTYPE" speedFactor="0.95" vaporized=""/>
    <tripinfo id="71" depart="306.00" departLane="left2A2_0" departPos="5.10" departSpeed="0.00" departDelay="0.00" arrival="411.00" arrivalLane="A3top0_0" arrivalPos="286.40" arrivalSpeed="12.38" duration="105.00" routeLength="895.01" waitingTime="17.00" waitingCount="2" stopTime="0.00" timeLoss="34.66" rerouteNo="0" devices="tripinfo_71" vType="DEFAULT_VEHTYPE" speedFactor="0.93" vaporized=""/>
    <tripinfo id="79" depart="328.00" departLane="right1D1_0" departPos="5.10" departSpeed="0.00" departDelay="0.00" arrival="412.00" arrivalLane="D2right2_0" arrivalPos="286.40" arrivalSpeed="14.45" duration="84.00" routeLength="858.56" waitingTime="7.00" waitingCount="2" stopTime="0.00" timeLoss="24.09" rerouteNo="0" devices="tripinfo_79" vType="DEFAULT_VEHTYPE" speedFactor="1.07" vaporized=""/>
    <tripinfo id="70" depart="295.00" departLane="top3D3_0" departPos="5.10" departSpeed="0.00" departDelay="0.00" arrival="415.00" arrivalLane="D1right1_0" arrivalPos="286.40" arrivalSpeed="13.32" duration="120.00" routeLength="1197.89" waitingTime="13.00" waitingCount="2" stopTime="0.00" timeLoss="33.32" rerouteNo="0" devices="tripinfo_70" vType="DEFAULT_VEHTYPE" speedFactor="1.01" vaporized=""/>
    <tripinfo id="60" depart="267.00" departLane="top3D3_0" departPos="5.10" departSpeed="0.00" departDelay="0.00" arrival="420.00" arrivalLane="D0right0_0" arrivalPos="286.40" arrivalSpeed="12.98" duration="153.00" routeLength="1498.06" waitingTime="18.00" waitingCount="2" stopTime="0.00" timeLoss="43.38" rerouteNo="0" devices="tripinfo_60" vType="DEFAULT_VEHTYPE" speedFactor="1.00" vaporized=""/>
    <tripinfo id="54" depart="245.00" departLane="left2A2_0" departPos="5.10" departSpeed="0.00" departDelay="0.00" arrival="422.00" arrivalLane="C3top2_0" arrivalPos="286.40" arrivalSpeed="11.73" duration="177.00" routeLength="1495.35" waitingTime="28.00" waitingCount="3" stopTime="0.00" timeLoss="52.59" rerouteNo="0" devices="tripinfo_54" vType="DEFAULT_VEHTYPE" speedFactor="0.87" vaporized=""/>
    <tripinfo id="57" depart="254.00" departLane="top3D3_0" departPos="5.10" departSpeed="0.00" departDelay="0.00" arrival="439.00" arrivalLane="A2left2_0" arrivalPos="286.40" arrivalSpeed="11.91" duration="185.00" routeLength="1780.11" waitingTime="22.00" waitingCount="3" stopTime="0.00" timeLoss="47.17" rerouteNo="0" devices="tripinfo_57" vType="DEFAULT_VEHTYPE" speedFactor="0.94" vaporized=""/>
    <tripinfo id="63" depart="275.00" departLane="bottom3D0_0" departPos="5.10" departSpeed="0.00" departDelay="0.00" arrival="446.00" arrivalLane="D0bottom3_0" arrivalPos="286.40" arrivalSpeed="11.80" duration="171.00" routeLength="1745.91" waitingTime="10.00" waitingCount="2" stopTime="0.00" timeLoss="31.57" rerouteNo="0" devices="tripinfo_63" vType="DEFAULT_VEHTYPE" speedFactor="0.92" vaporized=""/>
    <tripinfo id="67" depart="285.00" departLane="bottom1B0_0" departPos="5.10" departSpeed="0.00" departDelay="0.00" arrival="446.00" arrivalLane="D2right2_0" arrivalPos="286.40" arrivalSpeed="16.04" duration="161.00" routeLength="1780.11" waitingTime="22.00" waitingCount="3" stopTime="0.00" timeLoss="49.10" rerouteNo="0" devices="tripinfo_67" vType="DEFAULT_VEHTYPE" speedFactor="1.16" vaporized=""/>
    <tripinfo id="88" depart="389.00" departLane="right0D0_0" departPos="5.10" departSpeed="0.00" departDelay="0.00" arrival="449.00" arrivalLane="D0bottom3_0" arrivalPos="286.40" arrivalSpeed="13.18" duration="60.00" routeLength="597.55" waitingTime="6.00" waitingCount="1" stopTime="0.00" timeLoss="15.68" rerouteNo="0" devices="tripinfo_88" vType="DEFAULT_VEHTYPE" speedFactor="0.98" vaporized=""/>
    <tripinfo id="69" depart="293.00" departLane="top0A3_0" departPos="5.10" departSpeed="0.00" departDelay="0.00" arrival="451.00" arrivalLane="D3top3_0" arrivalPos="286.40" arrivalSpeed="13.11" duration="158.00" routeLength="1497.83" waitingTime="27.00" waitingCount="3" stopTime="0.00" timeLoss="51.19" rerouteNo="0" devices="tripinfo_69" vType="DEFAULT_VEHTYPE" speedFactor="1.02" vaporized=""/>
    <tripinfo id="62" depart="271.00" departLane="right1D1_0" departPos="5.10" departSpeed="0.00" departDelay="0.00" arrival="459.00" arrivalLane="B3top1_0" arrivalPos="286.40" arrivalSpeed="12.91" duration="188.00" routeLength="1780.11" waitingTime="30.00" waitingCount="4" stopTime="0.00" timeLoss="60.84" rerouteNo="0" devices="tripinfo_62" vType="DEFAULT_VEHTYPE" speedFactor="1.02" vaporized=""/>
    <tripinfo id="64" depart="276.00" departLane="top3D3_0" departPos="5.10" departSpeed="0.00" departDelay="0.00" arrival="468.00" arrivalLane="A1left1_1" arrivalPos="286.40" arrivalSpeed="16.11" duration="192.00" routeLength="2080.28" waitingTime="23.00" waitingCount="3" stopTime="0.00" timeLoss="65.47" rerouteNo="0" devices="tripinfo_64" vType="DEFAULT_VEHTYPE" speedFactor="1.19" vaporized=""/>