<?xml version="1.0" encoding="UTF-8"?>

<!-- generated on 12/19/21 16:08:35 by Eclipse SUMO sumo Version 1.7.0
<configuration xmlns:xsi="http://www.w3.org/2001/XMLSchema-instance" xsi:noNamespaceSchemaLocation="http://sumo.dlr.de/xsd/sumoConfiguration.xsd">

    <input>
        <net-file value="C:\Users\longs\Desktop\RESCO-main\environments\grid4x4\grid4x4.net.xml"/>
        <route-files value="C:\Users\longs\Desktop\RESCO-main\environments\grid4x4\grid4x4_32.rou.xml"/>
    </input>

    <output>
        <tripinfo-output value="C:\Users\longs\Desktop\RESCO-main\logs\IDQN-tr1-grid4x4-0-drqlong-delaydiff_pressure05\tripinfo_32.xml"/>
        <tripinfo-output.write-unfinished value="true"/>
    </output>

    <processing>
        <time-to-teleport value="-1"/>
    </processing>

    <report>
        <no-warnings value="true"/>
        <no-step-log value="true"/>
    </report>

    <traci_server>
        <remote-port value="54076"/>
    </traci_server>

    <random_number>
        <random value="true"/>
    </random_number>

</configuration>
-->

<tripinfos xmlns:xsi="http://www.w3.org/2001/XMLSchema-instance" xsi:noNamespaceSchemaLocation="http://sumo.dlr.de/xsd/tripinfo_file.xsd">
    <tripinfo id="2" depart="5.00" departLane="bottom1B0_0" departPos="5.10" departSpeed="0.00" departDelay="0.00" arrival="83.00" arrivalLane="C0bottom2_0" arrivalPos="286.40" arrivalSpeed="13.88" duration="78.00" routeLength="858.56" waitingTime="1.00" waitingCount="1" stopTime="0.00" timeLoss="14.51" rerouteNo="0" devices="tripinfo_2" vType="DEFAULT_VEHTYPE" speedFactor="1.01" vaporized=""/>
    <tripinfo id="9" depart="25.00" departLane="bottom0A0_0" departPos="5.10" departSpeed="0.00" departDelay="0.00" arrival="134.00" arrivalLane="C0bottom2_0" arrivalPos="286.40" arrivalSpeed="12.72" duration="109.00" routeLength="1161.43" waitingTime="2.00" waitingCount="2" stopTime="0.00" timeLoss="18.57" rerouteNo="0" devices="tripinfo_9" vType="DEFAULT_VEHTYPE" speedFactor="0.94" vaporized=""/>
    <tripinfo id="23" depart="82.00" departLane="left0A0_0" departPos="5.10" departSpeed="0.00" departDelay="0.00" arrival="134.00" arrivalLane="A0bottom0_0" arrivalPos="286.40" arrivalSpeed="13.71" duration="52.00" routeLength="576.73" waitingTime="1.00" waitingCount="1" stopTime="0.00" timeLoss="11.48" rerouteNo="0" devices="tripinfo_23" vType="DEFAULT_VEHTYPE" speedFactor="1.06" vaporized=""/>
    <tripinfo id="25" depart="85.00" departLane="left0A0_0" departPos="5.10" departSpeed="0.00" departDelay="0.00" arrival="138.00" arrivalLane="A0bottom0_0" arrivalPos="286.40" arrivalSpeed="12.65" duration="53.00" routeLength="576.73" waitingTime="0.00" waitingCount="0" stopTime="0.00" timeLoss="7.90" rerouteNo="0" devices="tripinfo_25" vType="DEFAULT_VEHTYPE" speedFactor="0.93" vaporized=""/>
    <tripinfo id="0" depart="1.00" departLane="right2D2_0" departPos="5.10" departSpeed="0.00" departDelay="0.00" arrival="165.00" arrivalLane="B0bottom1_0" arrivalPos="286.40" arrivalSpeed="16.10" duration="164.00" routeLength="1795.52" waitingTime="30.00" waitingCount="3" stopTime="0.00" timeLoss="54.78" rerouteNo="0" devices="tripinfo_0" vType="DEFAULT_VEHTYPE" speedFactor="1.20" vaporized=""/>
    <tripinfo id="8" depart="23.00" departLane="right1D1_0" departPos="5.10" departSpeed="0.00" departDelay="0.00" arrival="165.00" arrivalLane="D3top3_0" arrivalPos="286.40" arrivalSpeed="15.51" duration="142.00" routeLength="1179.77" waitingTime="44.00" waitingCount="3" stopTime="0.00" timeLoss="69.95" rerouteNo="0" devices="tripinfo_8" vType="DEFAULT_VEHTYPE" speedFactor="1.19" vaporized=""/>
    <tripinfo id="11" depart="32.00" departLane="right1D1_0" departPos="5.10" departSpeed="0.00" departDelay="0.00" arrival="172.00" arrivalLane="D3top3_0" arrivalPos="286.40" arrivalSpeed="11.60" duration="140.00" routeLength="1179.77" waitingTime="27.00" waitingCount="3" stopTime="0.00" timeLoss="47.31" rerouteNo="0" devices="tripinfo_11" vType="DEFAULT_VEHTYPE" speedFactor="0.92" vaporized=""/>
    <tripinfo id="6" depart="15.00" departLane="top0A3_0" departPos="5.10" departSpeed="0.00" departDelay="0.00" arrival="185.00" arrivalLane="D3top3_0" arrivalPos="286.40" arrivalSpeed="13.08" duration="170.00" routeLength="1497.83" waitingTime="33.00" waitingCount="2" stopTime="0.00" timeLoss="59.36" rerouteNo="0" devices="tripinfo_6" vType="DEFAULT_VEHTYPE" speedFactor="0.99" vaporized=""/>
    <tripinfo id="1" depart="3.00" departLane="top0A3_0" departPos="5.10" departSpeed="0.00" departDelay="0.00" arrival="188.00" arrivalLane="D3right3_0" arrivalPos="286.40" arrivalSpeed="13.72" duration="185.00" routeLength="1495.35" waitingTime="53.00" waitingCount="3" stopTime="0.00" timeLoss="81.34" rerouteNo="0" devices="tripinfo_1" vType="DEFAULT_VEHTYPE" speedFactor="1.05" vaporized=""/>
    <tripinfo id="14" depart="56.00" departLane="right2D2_0" departPos="5.10" departSpeed="0.00" departDelay="0.00" arrival="188.00" arrivalLane="D0right0_0" arrivalPos="286.40" arrivalSpeed="9.63" duration="132.00" routeLength="1197.66" waitingTime="0.00" waitingCount="0" stopTime="0.00" timeLoss="13.45" rerouteNo="0" devices="tripinfo_14" vType="DEFAULT_VEHTYPE" speedFactor="0.74" vaporized=""/>
    <tripinfo id="29" depart="100.00" departLane="top1B3_0" departPos="5.10" departSpeed="0.00" departDelay="0.00" arrival="191.00" arrivalLane="C3top2_0" arrivalPos="286.40" arrivalSpeed="11.63" duration="91.00" routeLength="894.86" waitingTime="4.00" waitingCount="1" stopTime="0.00" timeLoss="19.80" rerouteNo="0" devices="tripinfo_29" vType="DEFAULT_VEHTYPE" speedFactor="0.92" vaporized=""/>
    <tripinfo id="13" depart="48.00" departLane="bottom2C0_0" departPos="5.10" departSpeed="0.00" departDelay="0.00" arrival="197.00" arrivalLane="D1right1_0" arrivalPos="286.40" arrivalSpeed="14.92" duration="149.00" routeLength="1179.77" waitingTime="48.00" waitingCount="3" stopTime="0.00" timeLoss="70.43" rerouteNo="0" devices="tripinfo_13" vType="DEFAULT_VEHTYPE" speedFactor="1.09" vaporized=""/>
    <tripinfo id="17" depart="64.00" departLane="left3A3_0" departPos="5.10" departSpeed="0.00" departDelay="0.00" arrival="198.00" arrivalLane="A0bottom0_0" arrivalPos="286.40" arrivalSpeed="14.65" duration="134.00" routeLength="1479.94" waitingTime="11.00" waitingCount="3" stopTime="0.00" timeLoss="36.40" rerouteNo="0" devices="tripinfo_17" vType="DEFAULT_VEHTYPE" speedFactor="1.10" vaporized=""/>
    <tripinfo id="3" depart="8.00" departLane="left0A0_0" departPos="5.10" departSpeed="0.00" departDelay="0.00" arrival="202.00" arrivalLane="A3left3_0" arrivalPos="286.40" arrivalSpeed="11.39" duration="194.00" routeLength="1497.83" waitingTime="50.00" waitingCount="2" stopTime="0.00" timeLoss="73.23" rerouteNo="0" devices="tripinfo_3" vType="DEFAULT_VEHTYPE" speedFactor="0.90" vaporized=""/>
    <tripinfo id="24" depart="84.00" departLane="right3D3_0" departPos="5.10" departSpeed="0.00" departDelay="0.00" arrival="207.00" arrivalLane="B3top1_0" arrivalPos="286.40" arrivalSpeed="12.56" duration="123.00" routeLength="1177.07" waitingTime="15.00" waitingCount="3" stopTime="0.00" timeLoss="35.03" rerouteNo="0" devices="tripinfo_24" vType="DEFAULT_VEHTYPE" speedFactor="0.97" vaporized=""/>
    <tripinfo id="19" depart="71.00" departLane="left1A1_0" departPos="5.10" departSpeed="0.00" departDelay="1.00" arrival="208.00" arrivalLane="B0bottom1_0" arrivalPos="286.40" arrivalSpeed="14.46" duration="137.00" routeLength="1179.77" waitingTime="29.00" waitingCount="3" stopTime="0.00" timeLoss="55.64" rerouteNo="0" devices="tripinfo_19" vType="DEFAULT_VEHTYPE" speedFactor="1.06" vaporized=""/>
    <tripinfo id="12" depart="36.00" departLane="top3D3_0" departPos="5.10" departSpeed="0.00" departDelay="0.00" arrival="210.00" arrivalLane="A3top0_0" arrivalPos="286.40" arrivalSpeed="13.58" duration="174.00" routeLength="1461.60" waitingTime="42.00" waitingCount="3" stopTime="0.00" timeLoss="65.41" rerouteNo="0" devices="tripinfo_12" vType="DEFAULT_VEHTYPE" speedFactor="0.98" vaporized=""/>
    <tripinfo id="22" depart="80.00" departLane="bottom1B0_0" departPos="5.10" departSpeed="0.00" departDelay="0.00" arrival="210.00" arrivalLane="B3top1_0" arrivalPos="286.40" arrivalSpeed="11.79" duration="130.00" routeLength="1495.58" waitingTime="0.00" waitingCount="0" stopTime="0.00" timeLoss="14.84" rerouteNo="0" devices="tripinfo_22" vType="DEFAULT_VEHTYPE" speedFactor="0.94" vaporized=""/>
    <tripinfo id="39" depart="133.00" departLane="bottom1B0_0" departPos="5.10" departSpeed="0.00" departDelay="0.00" arrival="217.00" arrivalLane="C0bottom2_0" arrivalPos="286.40" arrivalSpeed="13.01" duration="84.00" routeLength="858.56" waitingTime="2.00" waitingCount="2" stopTime="0.00" timeLoss="17.81" rerouteNo="0" devices="tripinfo_39" vType="DEFAULT_VEHTYPE" speedFactor="0.96" vaporized=""/>
    <tripinfo id="7" depart="19.00" departLane="bottom3D0_0" departPos="5.10" departSpeed="0.00" departDelay="0.00" arrival="218.00" arrivalLane="A1left1_0" arrivalPos="286.40" arrivalSpeed="13.38" duration="199.00" routeLength="1795.52" waitingTime="40.00" waitingCount="4" stopTime="0.00" timeLoss="71.11" rerouteNo="0" devices="tripinfo_7" vType="DEFAULT_VEHTYPE" speedFactor="1.01" vaporized=""/>
    <tripinfo id="20" depart="71.00" departLane="right0D0_0" departPos="5.10" departSpeed="0.00" departDelay="0.00" arrival="218.00" arrivalLane="A0left0_0" arrivalPos="286.40" arrivalSpeed="14.77" duration="147.00" routeLength="1495.58" waitingTime="18.00" waitingCount="3" stopTime="0.00" timeLoss="46.03" rerouteNo="0" devices="tripinfo_20" vType="DEFAULT_VEHTYPE" speedFactor="1.07" vaporized=""/>
    <tripinfo id="36" depart="125.00" departLane="bottom1B0_0" departPos="5.10" departSpeed="0.00" departDelay="0.00" arrival="218.00" arrivalLane="A1left1_1" arrivalPos="286.40" arrivalSpeed="15.66" duration="93.00" routeLength="1195.18" waitingTime="3.00" waitingCount="1" stopTime="0.00" timeLoss="17.36" rerouteNo="0" devices="tripinfo_36" vType="DEFAULT_VEHTYPE" speedFactor="1.15" vaporized=""/>
    <tripinfo id="32" depart="112.00" departLane="right1D1_0" departPos="5.10" departSpeed="0.00" departDelay="0.00" arrival="219.00" arrivalLane="D3right3_0" arrivalPos="286.40" arrivalSpeed="12.83" duration="107.00" routeLength="1161.43" waitingTime="1.00" waitingCount="1" stopTime="0.00" timeLoss="15.29" rerouteNo="0" devices="tripinfo_32" vType="DEFAULT_VEHTYPE" speedFactor="0.93" vaporized=""/>
    <tripinfo id="28" depart="98.00" departLane="bottom2C0_0" departPos="5.10" departSpeed="0.00" departDelay="0.00" arrival="237.00" arrivalLane="C3top2_0" arrivalPos="286.40" arrivalSpeed="15.19" duration="139.00" routeLength="1495.58" waitingTime="20.00" waitingCount="3" stopTime="0.00" timeLoss="44.88" rerouteNo="0" devices="tripinfo_28" vType="DEFAULT_VEHTYPE" speedFactor="1.15" vaporized=""/>
    <tripinfo id="37" depart="130.00" departLane="bottom0A0_0" departPos="5.10" departSpeed="0.00" departDelay="0.00" arrival="238.00" arrivalLane="A2left2_0" arrivalPos="286.40" arrivalSpeed="14.27" duration="108.00" routeLength="1197.89" waitingTime="15.00" waitingCount="1" stopTime="0.00" timeLoss="27.17" rerouteNo="0" devices="tripinfo_37" vType="DEFAULT_VEHTYPE" speedFactor="1.08" vaporized=""/>
    <tripinfo id="4" depart="9.00" departLane="right2D2_0" departPos="5.10" departSpeed="0.00" departDelay="0.00" arrival="254.00" arrivalLane="A3left3_0" arrivalPos="286.40" arrivalSpeed="10.36" duration="245.00" routeLength="1782.72" waitingTime="53.00" waitingCount="4" stopTime="0.00" timeLoss="81.90" rerouteNo="0" devices="tripinfo_4" vType="DEFAULT_VEHTYPE" speedFactor="0.80" vaporized=""/>
    <tripinfo id="5" depart="12.00" departLane="bottom1B0_0" departPos="5.10" departSpeed="0.00" departDelay="0.00" arrival="262.00" arrivalLane="B0bottom1_0" arrivalPos="286.40" arrivalSpeed="11.85" duration="250.00" routeLength="1748.75" waitingTime="80.00" waitingCount="3" stopTime="0.00" timeLoss="110.32" rerouteNo="0" devices="tripinfo_5" vType="DEFAULT_VEHTYPE" speedFactor="0.92" vaporized=""/>
    <tripinfo id="18" depart="68.00" departLane="left1A1_0" departPos="5.10" departSpeed="0.00" departDelay="0.00" arrival="266.00" arrivalLane="D2right2_0" arrivalPos="286.40" arrivalSpeed="12.17" duration="198.00" routeLength="1782.59" waitingTime="24.00" waitingCount="4" stopTime="0.00" timeLoss="55.87" rerouteNo="0" devices="tripinfo_18" vType="DEFAULT_VEHTYPE" speedFactor="0.92" vaporized=""/>
    <tripinfo id="16" depart="59.00" departLane="left2A2_0" departPos="5.10" departSpeed="0.00" departDelay="0.00" arrival="270.00" arrivalLane="B0bottom1_0" arrivalPos="286.40" arrivalSpeed="12.57" duration="211.00" routeLength="1479.94" waitingTime="65.00" waitingCount="3" stopTime="0.00" timeLoss="93.34" rerouteNo="0" devices="tripinfo_16" vType="DEFAULT_VEHTYPE" speedFactor="0.91" vaporized=""/>
    <tripinfo id="45" depart="202.00" departLane="right0D0_0" departPos="5.10" departSpeed="0.00" departDelay="0.00" arrival="270.00" arrivalLane="D0bottom3_0" arrivalPos="286.40" arrivalSpeed="13.43" duration="68.00" routeLength="597.55" waitingTime="13.00" waitingCount="1" stopTime="0.00" timeLoss="23.42" rerouteNo="0" devices="tripinfo_45" vType="DEFAULT_VEHTYPE" speedFactor="1.00" vaporized=""/>
    <tripinfo id="41" depart="146.00" departLane="left1A1_0" departPos="5.10" departSpeed="0.00" departDelay="0.00" arrival="283.00" arrivalLane="A0bottom0_0" arrivalPos="286.40" arrivalSpeed="11.57" duration="137.00" routeLength="879.60" waitingTime="44.00" waitingCount="2" stopTime="0.00" timeLoss="61.07" rerouteNo="0" devices="tripinfo_41" vType="DEFAULT_VEHTYPE" speedFactor="0.85" vaporized=""/>
    <tripinfo id="26" depart="94.00" departLane="top1B3_0" departPos="5.10" departSpeed="0.00" departDelay="0.00" arrival="288.00" arrivalLane="A0left0_0" arrivalPos="286.40" arrivalSpeed="14.66" duration="194.00" routeLength="1780.11" waitingTime="46.00" waitingCount="3" stopTime="0.00" timeLoss="72.05" rerouteNo="0" devices="tripinfo_26" vType="DEFAULT_VEHTYPE" speedFactor="1.06" vaporized=""/>
    <tripinfo id="30" depart="103.00" departLane="left3A3_0" departPos="5.10" departSpeed="0.00" departDelay="0.00" arrival="288.00" arrivalLane="D3top3_0" arrivalPos="286.40" arrivalSpeed="14.62" duration="185.00" routeLength="1498.06" waitingTime="61.00" waitingCount="3" stopTime="0.00" timeLoss="87.01" rerouteNo="0" devices="tripinfo_30" vType="DEFAULT_VEHTYPE" speedFactor="1.10" vaporized=""/>
    <tripinfo id="47" depart="208.00" departLane="left1A1_0" departPos="5.10" departSpeed="0.00" departDelay="0.00" arrival="294.00" arrivalLane="A2left2_0" arrivalPos="286.40" arrivalSpeed="12.75" duration="86.00" routeLength="894.86" waitingTime="7.00" waitingCount="1" stopTime="0.00" timeLoss="19.02" rerouteNo="0" devices="tripinfo_47" vType="DEFAULT_VEHTYPE" speedFactor="0.98" vaporized=""/>
    <tripinfo id="15" depart="56.00" departLane="left0A0_0" departPos="5.10" departSpeed="0.00" departDelay="0.00" arrival="299.00" arrivalLane="D2right2_0" arrivalPos="286.40" arrivalSpeed="13.21" duration="243.00" routeLength="2080.05" waitingTime="49.00" waitingCount="6" stopTime="0.00" timeLoss="89.72" rerouteNo="0" devices="tripinfo_15" vType="DEFAULT_VEHTYPE" speedFactor="0.99" vaporized=""/>
    <tripinfo id="48" depart="223.00" departLane="right2D2_0" departPos="5.10" departSpeed="0.00" departDelay="0.00" arrival="300.00" arrivalLane="D3right3_0" arrivalPos="286.40" arrivalSpeed="14.03" duration="77.00" routeLength="858.56" waitingTime="2.00" waitingCount="2" stopTime="0.00" timeLoss="17.70" rerouteNo="0" devices="tripinfo_48" vType="DEFAULT_VEHTYPE" speedFactor="1.06" vaporized=""/>
    <tripinfo id="31" depart="111.00" departLane="top3D3_0" departPos="5.10" departSpeed="0.00" departDelay="0.00" arrival="310.00" arrivalLane="A2left2_0" arrivalPos="286.40" arrivalSpeed="12.39" duration="199.00" routeLength="1780.11" waitingTime="30.00" waitingCount="3" stopTime="0.00" timeLoss="62.45" rerouteNo="0" devices="tripinfo_31" vType="DEFAULT_VEHTYPE" speedFactor="0.95" vaporized=""/>
    <tripinfo id="49" depart="223.00" departLane="bottom0A0_0" departPos="5.10" departSpeed="0.00" departDelay="0.00" arrival="311.00" arrivalLane="A0left0_0" arrivalPos="286.40" arrivalSpeed="12.98" duration="88.00" routeLength="597.55" waitingTime="31.00" waitingCount="1" stopTime="0.00" timeLoss="41.96" rerouteNo="0" devices="tripinfo_49" vType="DEFAULT_VEHTYPE" speedFactor="0.94" vaporized=""/>
    <tripinfo id="34" depart="118.00" departLane="left2A2_0" departPos="5.10" departSpeed="0.00" departDelay="0.00" arrival="315.00" arrivalLane="B0bottom1_0" arrivalPos="286.40" arrivalSpeed="17.18" duration="197.00" routeLength="1479.94" waitingTime="78.00" waitingCount="4" stopTime="0.00" timeLoss="110.26" rerouteNo="0" devices="tripinfo_34" vType="DEFAULT_VEHTYPE" speedFactor="1.24" vaporized=""/>
    <tripinfo id="10" depart="29.00" departLane="left2A2_0" departPos="5.10" departSpeed="0.00" departDelay="0.00" arrival="328.00" arrivalLane="D0bottom3_1" arrivalPos="286.40" arrivalSpeed="15.24" duration="299.00" routeLength="2080.28" waitingTime="121.00" waitingCount="6" stopTime="0.00" timeLoss="169.29" rerouteNo="0" devices="tripinfo_10" vType="DEFAULT_VEHTYPE" speedFactor="1.16" vaporized=""/>
    <tripinfo id="35" depart="121.00" departLane="right1D1_0" departPos="5.10" departSpeed="0.00" departDelay="0.00" arrival="328.00" arrivalLane="A0left0_0" arrivalPos="286.40" arrivalSpeed="14.04" duration="207.00" routeLength="1782.59" waitingTime="58.00" waitingCount="3" stopTime="0.00" timeLoss="85.68" rerouteNo="0" devices="tripinfo_35" vType="DEFAULT_VEHTYPE" speedFactor="1.07" vaporized=""/>
    <tripinfo id="21" depart="75.00" departLane="left1A1_0" departPos="5.10" departSpeed="0.00" departDelay="0.00" arrival="329.00" arrivalLane="D0bottom3_0" arrivalPos="286.40" arrivalSpeed="12.90" duration="254.00" routeLength="1780.11" waitingTime="87.00" waitingCount="5" stopTime="0.00" timeLoss="126.91" rerouteNo="0" devices="tripinfo_21" vType="DEFAULT_VEHTYPE" speedFactor="1.02" vaporized=""/>
    <tripinfo id="53" depart="238.00" departLane="top2C3_0" departPos="5.10" departSpeed="0.00" departDelay="0.00" arrival="332.00" arrivalLane="A3top0_0" arrivalPos="286.40" arrivalSpeed="15.61" duration="94.00" routeLength="1161.43" waitingTime="1.00" waitingCount="1" stopTime="0.00" timeLoss="23.40" rerouteNo="0" devices="tripinfo_53" vType="DEFAULT_VEHTYPE" speedFactor="1.21" vaporized=""/>
    <tripinfo id="58" depart="255.00" departLane="left0A0_0" departPos="5.10" departSpeed="0.00" departDelay="0.00" arrival="350.00" arrivalLane="A1left1_0" arrivalPos="286.40" arrivalSpeed="13.47" duration="95.00" routeLength="894.86" waitingTime="10.00" waitingCount="2" stopTime="0.00" timeLoss="27.33" rerouteNo="0" devices="tripinfo_58" vType="DEFAULT_VEHTYPE" speedFactor="0.97" vaporized=""/>
    <tripinfo id="54" depart="241.00" departLane="top2C3_0" departPos="5.10" departSpeed="0.00" departDelay="1.00" arrival="352.00" arrivalLane="D3top3_0" arrivalPos="286.40" arrivalSpeed="12.10" duration="111.00" routeLength="894.86" waitingTime="23.00" waitingCount="2" stopTime="0.00" timeLoss="39.07" rerouteNo="0" devices="tripinfo_54" vType="DEFAULT_VEHTYPE" speedFactor="0.91" vaporized=""/>
    <tripinfo id="68" depart="295.00" departLane="left1A1_0" departPos="5.10" departSpeed="0.00" departDelay="0.00" arrival="360.00" arrivalLane="A2left2_0" arrivalPos="286.40" arrivalSpeed="15.08" duration="65.00" routeLength="894.86" waitingTime="0.00" waitingCount="0" stopTime="0.00" timeLoss="7.09" rerouteNo="0" devices="tripinfo_68" vType="DEFAULT_VEHTYPE" speedFactor="1.14" vaporized=""/>
    <tripinfo id="27" depart="97.00" departLane="left2A2_0" departPos="5.10" departSpeed="0.00" departDelay="0.00" arrival="367.00" arrivalLane="D0right0_0" arrivalPos="286.40" arrivalSpeed="15.00" duration="270.00" routeLength="2082.76" waitingTime="94.00" waitingCount="5" stopTime="0.00" timeLoss="136.64" rerouteNo="0" devices="tripinfo_27" vType="DEFAULT_VEHTYPE" speedFactor="1.13" vaporized=""/>
    <tripinfo id="70" depart="296.00" departLane="right1D1_0" departPos="5.10" departSpeed="0.00" departDelay="0.00" arrival="375.00" arrivalLane="D0right0_0" arrivalPos="286.40" arrivalSpeed="13.00" duration="79.00" routeLength="894.86" waitingTime="0.00" waitingCount="0" stopTime="0.00" timeLoss="8.43" rerouteNo="0" devices="tripinfo_70" vType="DEFAULT_VEHTYPE" speedFactor="0.94" vaporized=""/>
    <tripinfo id="33" depart="115.00" departLane="right1D1_0" departPos="5.10" departSpeed="0.00" departDelay="0.00" arrival="393.00" arrivalLane="A3left3_0" arrivalPos="286.40" arrivalSpeed="11.66" duration="278.00" routeLength="2082.76" waitingTime="73.00" waitingCount="3" stopTime="0.00" timeLoss="104.76" rerouteNo="0" devices="tripinfo_33" vType="DEFAULT_VEHTYPE" speedFactor="0.88" vaporized=""/>
    <tripinfo id="52" depart="237.00" departLane="top1B3_0" departPos="5.10" departSpeed="0.00" departDelay="0.00" arrival="396.00" arrivalLane="C0bottom2_0" arrivalPos="286.40" arrivalSpeed="15.85" duration="159.00" routeLength="1782.59" waitingTime="19.00" waitingCount="3" stopTime="0.00" timeLoss="48.71" rerouteNo="0" devices="tripinfo_52" vType="DEFAULT_VEHTYPE" speedFactor="1.18" vaporized=""/>
    <tripinfo id="38" depart="132.00" departLane="top2C3_0" departPos="5.10" departSpeed="0.00" departDelay="0.00" arrival="399.00" arrivalLane="A0bottom0_0" arrivalPos="286.40" arrivalSpeed="13.67" duration="267.00" routeLength="2082.76" waitingTime="81.00" waitingCount="5" stopTime="0.00" timeLoss="119.42" rerouteNo="0" devices="tripinfo_38" vType="DEFAULT_VEHTYPE" speedFactor="1.02" vaporized=""/>
    <tripinfo id="42" depart="148.00" departLane="bottom0A0_0" departPos="5.10" departSpeed="0.00" departDelay="0.00" arrival="399.00" arrivalLane="D1right1_0" arrivalPos="286.40" arrivalSpeed="13.75" duration="251.00" routeLength="1780.11" waitingTime="93.00" waitingCount="4" stopTime="0.00" timeLoss="123.88" rerouteNo="0" devices="tripinfo_42" vType="DEFAULT_VEHTYPE" speedFactor="1.02" vaporized=""/>
    <tripinfo id="56" depart="250.00" departLane="bottom2C0_0" departPos="5.10" departSpeed="0.00" departDelay="0.00" arrival="402.00" arrivalLane="D2right2_0" arrivalPos="286.40" arrivalSpeed="12.52" duration="152.00" routeLength="1479.94" waitingTime="11.00" waitingCount="2" stopTime="0.00" timeLoss="36.97" rerouteNo="0" devices="tripinfo_56" vType="DEFAULT_VEHTYPE" speedFactor="0.94" vaporized=""/>
    <tripinfo id="44" depart="198.00" departLane="bottom3D0_0" departPos="5.10" departSpeed="0.00" departDelay="0.00" arrival="408.00" arrivalLane="A3left3_1" arrivalPos="286.40" arrivalSpeed="14.81" duration="210.00" routeLength="2395.86" waitingTime="26.00" waitingCount="3" stopTime="0.00" timeLoss="56.50" rerouteNo="0" devices="tripinfo_44" vType="DEFAULT_VEHTYPE" speedFactor="1.13" vaporized=""/>
    <tripinfo id="64" depart="285.00" departLane="top1B3_0" departPos="5.10" departSpeed="0.00" departDelay="0.00" arrival="409.00" arrivalLane="A2left2_1" arrivalPos="286.40" arrivalSpeed="15.53" duration="124.00" routeLength="1179.77" waitingTime="31.00" waitingCount="2" stopTime="0.00" timeLoss="52.64" rerouteNo="0" devices="tripinfo_64" vType="DEFAULT_VEHTYPE" speedFactor="1.21" vaporized=""/>
    <tripinfo id="43" depart="171.00" departLane="bottom1B0_0" departPos="5.10" departSpeed="0.00" departDelay="0.00" arrival="410.00" arrivalLane="A2left2_0" arrivalPos="286.40" arrivalSpeed="12.51" duration="239.00" routeLength="1495.35" waitingTime="95.00" waitingCount="4" stopTime="0.00" timeLoss="124.20" rerouteNo="0" devices="tripinfo_43" vType="DEFAULT_VEHTYPE" speedFactor="0.95" vaporized=""/>
    <tripinfo id="51" depart="231.00" departLane="right1D1_0" departPos="5.10" departSpeed="0.00" departDelay="0.00" arrival="411.00" arrivalLane="A2left2_1" arrivalPos="286.40" arrivalSpeed="16.35" duration="180.00" routeLength="1782.72" waitingTime="29.00" waitingCount="5" stopTime="0.00" timeLoss="71.79" rerouteNo="0" devices="tripinfo_51" vType="DEFAULT_VEHTYPE" speedFactor="1.20" vaporized=""/>
    <tripinfo id="40" depart="137.00" departLane="top3D3_0" departPos="5.10" departSpeed="0.00" departDelay="0.00" arrival="412.00" arrivalLane="A2left2_0" arrivalPos="286.40" arrivalSpeed="13.28" duration="275.00" routeLength="1780.11" waitingTime="105.00" waitingCount="5" stopTime="0.00" timeLoss="140.50" rerouteNo="0" devices="tripinfo_40" vType="DEFAULT_VEHTYPE" speedFactor="0.96" vaporized=""/>
    <tripinfo id="67" depart="291.00" departLane="top2C3_0" departPos="5.10" departSpeed="0.00" departDelay="0.00" arrival="413.00" arrivalLane="A3left3_0" arrivalPos="286.40" arrivalSpeed="11.24" duration="122.00" routeLength="1179.77" waitingTime="7.00" waitingCount="1" stopTime="0.00" timeLoss="19.95" rerouteNo="0" devices="tripinfo_67" vType="DEFAULT_VEHTYPE" speedFactor="0.84" vaporized=""/>
    <tripinfo id="77" depart="332.00" departLane="right2D2_0" departPos="5.10" departSpeed="0.00" departDelay="0.00" arrival="417.00" arrivalLane="D3top3_0" arrivalPos="286.40" arrivalSpeed="15.28" duration="85.00" routeLength="879.60" waitingTime="9.00" waitingCount="2" stopTime="0.00" timeLoss="27.71" rerouteNo="0" devices="tripinfo_77" vType="DEFAULT_VEHTYPE" speedFactor="1.12" vaporized=""/>
    <tripinfo id="75" depart="321.00" departLane="left1A1_0" departPos="5.10" departSpeed="0.00" departDelay="0.00" arrival="431.00" arrivalLane="A2left2_0" arrivalPos="286.40" arrivalSpeed="12.34" duration="110.00" routeLength="894.86" waitingTime="22.00" waitingCount="2" stopTime="0.00" timeLoss="39.64" rerouteNo="0" devices="tripinfo_75" vType="DEFAULT_VEHTYPE" speedFactor="0.94" vaporized=""/>
    <tripinfo id="90" depart="390.00" departLane="bottom3D0_0" departPos="5.10" departSpeed="0.00" departDelay="0.00" arrival="435.00" arrivalLane="D0right0_0" arrivalPos="286.40" arrivalSpeed="16.84" duration="45.00" routeLength="576.73" waitingTime="1.00" waitingCount="1" stopTime="0.00" timeLoss="11.99" rerouteNo="0" devices="tripinfo_90" vType="DEFAULT_VEHTYPE" speedFactor="1.27" vaporized=""/>
    <tripinfo id="57" depart="252.00" departLane="right2D2_0" departPos="5.10" departSpeed="0.00" departDelay="0.00" arrival="442.00" arrivalLane="A0bottom0_0" arrivalPos="286.40" arrivalSpeed="11.97" duration="190.00" routeLength="2095.69" waitingTime="6.00" waitingCount="1" stopTime="0.00" timeLoss="23.04" rerouteNo="0" devices="tripinfo_57" vType="DEFAULT_VEHTYPE" speedFactor="0.91" vaporized=""/>
    <tripinfo id="46" depart="207.00" departLane="left0A0_0" departPos="5.10" departSpeed="0.00" departDelay="0.00" arrival="443.00" arrivalLane="C3top2_1" arrivalPos="286.40" arrivalSpeed="13.46" duration="236.00" routeLength="2095.69" waitingTime="59.00" waitingCount="3" stopTime="0.00" timeLoss="85.96" rerouteNo="0" devices="tripinfo_46" vType="DEFAULT_VEHTYPE" speedFactor="1.01" vaporized=""/>
    <tripinfo id="55" depart="245.00" departLane="bottom2C0_0" departPos="5.10" departSpeed="0.00" departDelay="0.00" arrival="445.00" arrivalLane="C3top2_0" arrivalPos="286.40" arrivalSpeed="9.98" duration="200.00" routeLength="1495.58" waitingTime="43.00" waitingCount="2" stopTime="0.00" timeLoss="64.54" rerouteNo="0" devices="tripinfo_55" vType="DEFAULT_VEHTYPE" speedFactor="0.80" vaporized=""/>
    <tripinfo id="63" depart="275.00" departLane="top1B3_0" departPos="5.10" departSpeed="0.00" departDelay="0.00" arrival="448.00" arrivalLane="D2right2_0" arrivalPos="286.40" arrivalSpeed="13.28" duration="173.00" routeLength="1495.35" waitingTime="43.00" waitingCount="3" stopTime="0.00" timeLoss="68.77" rerouteNo="0" devices="tripinfo_63" vType="DEFAULT_VEHTYPE" speedFactor="1.05" vaporized=""/>
    <tripinfo id="85" depart="370.00" departLane="top2C3_0" departPos="5.10" departSpeed="0.00" departDelay="0.00" arrival="453.00" arrivalLane="B3top1_0" arrivalPos="286.40" arrivalSpeed="12.74" duration="83.00" routeLength="858.56" waitingTime="1.00" waitingCount="1" stopTime="0.00" timeLoss="15.37" rerouteNo="0" devices="tripinfo_85" vType="DEFAULT_VEHTYPE" speedFactor="0.93" vaporized=""/>
    <tripinfo id="91" depart="391.00" departLane="top1B3_0" departPos="5.10" departSpeed="0.00" departDelay="0.00" arrival="461.00" arrivalLane="A3top0_0" arrivalPos="286.40" arrivalSpeed="15.49" duration="70.00" routeLength="858.56" waitingTime="1.00" waitingCount="1" stopTime="0.00" timeLoss="15.98" rerouteNo="0" devices="tripinfo_91" vType="DEFAULT_VEHTYPE" speedFactor="1.19" vaporized=""/>
    <tripinfo id="65" depart="285.00" departLane="bottom3D0_0" departPos="5.10" departSpeed="0.00" departDelay="0.00" arrival="463.00" arrivalLane="D3right3_0" arrivalPos="286.40" arrivalSpeed="13.28" duration="178.00" routeLength="1477.24" waitingTime="49.00" waitingCount="2" stopTime="0.00" timeLoss="72.24" rerouteNo="0" devices="tripinfo_65" vType="DEFAULT_VEHTYPE" speedFactor="1.02" vaporized=""/>
    <tripinfo id="61" depart="270.00" departLane="right0D0_0" departPos="5.10" departSpeed="0.00" departDelay="0.00" arrival="468.00" arrivalLane="A0bottom0_0" arrivalPos="286.40" arrivalSpeed="13.49" duration="198.00" routeLength="1498.06" waitingTime="69.00" waitingCount="3" stopTime="0.00" timeLoss="92.99" rerouteNo="0" devices="tripinfo_61" vType="DEFAULT_VEHTYPE" speedFactor="1.03" vaporized=""/>
    <tripinfo id="72" depart="315.00" departLane="left1A1_0" departPos="5.10" departSpeed="0.00" departDelay="0.00" arrival="470.00" arrivalLane="C0bottom2_0" arrivalPos="286.40" arrivalSpeed="13.01" duration="155.00" routeLength="1479.94" waitingTime="24.00" waitingCount="3" stopTime="0.00" timeLoss="46.51" rerouteNo="0" devices="tripinfo_72" vType="DEFAULT_VEHTYPE" speedFactor="0.99" vaporized=""/>