<?xml version="1.0" encoding="UTF-8"?>

<!-- generated on 12/19/21 16:07:40 by Eclipse SUMO sumo Version 1.7.0
<configuration xmlns:xsi="http://www.w3.org/2001/XMLSchema-instance" xsi:noNamespaceSchemaLocation="http://sumo.dlr.de/xsd/sumoConfiguration.xsd">

    <input>
        <net-file value="C:\Users\longs\Desktop\RESCO-main\environments\grid4x4\grid4x4.net.xml"/>
        <route-files value="C:\Users\longs\Desktop\RESCO-main\environments\grid4x4\grid4x4_31.rou.xml"/>
    </input>

    <output>
        <tripinfo-output value="C:\Users\longs\Desktop\RESCO-main\logs\IDQN-tr1-grid4x4-0-drqlong-delaydiff_pressure05\tripinfo_31.xml"/>
        <tripinfo-output.write-unfinished value="true"/>
    </output>

    <processing>
        <time-to-teleport value="-1"/>
    </processing>

    <report>
        <no-warnings value="true"/>
        <no-step-log value="true"/>
    </report>

    <traci_server>
        <remote-port value="54050"/>
    </traci_server>

    <random_number>
        <random value="true"/>
    </random_number>

</configuration>
-->

<tripinfos xmlns:xsi="http://www.w3.org/2001/XMLSchema-instance" xsi:noNamespaceSchemaLocation="http://sumo.dlr.de/xsd/tripinfo_file.xsd">
    <tripinfo id="0" depart="7.00" departLane="top0A3_0" departPos="5.10" departSpeed="0.00" departDelay="0.00" arrival="120.00" arrivalLane="B3top1_0" arrivalPos="286.40" arrivalSpeed="12.31" duration="113.00" routeLength="894.86" waitingTime="31.00" waitingCount="2" stopTime="0.00" timeLoss="44.16" rerouteNo="0" devices="tripinfo_0" vType="DEFAULT_VEHTYPE" speedFactor="0.96" vaporized=""/>
    <tripinfo id="1" depart="14.00" departLane="left0A0_0" departPos="5.10" departSpeed="0.00" departDelay="0.00" arrival="141.00" arrivalLane="B0bottom1_0" arrivalPos="286.40" arrivalSpeed="11.18" duration="127.00" routeLength="876.90" waitingTime="40.00" waitingCount="2" stopTime="0.00" timeLoss="55.49" rerouteNo="0" devices="tripinfo_1" vType="DEFAULT_VEHTYPE" speedFactor="0.90" vaporized=""/>
    <tripinfo id="4" depart="35.00" departLane="top3D3_0" departPos="5.10" departSpeed="0.00" departDelay="0.00" arrival="158.00" arrivalLane="A3left3_0" arrivalPos="286.40" arrivalSpeed="14.64" duration="123.00" routeLength="1479.94" waitingTime="11.00" waitingCount="2" stopTime="0.00" timeLoss="28.52" rerouteNo="0" devices="tripinfo_4" vType="DEFAULT_VEHTYPE" speedFactor="1.14" vaporized=""/>
    <tripinfo id="5" depart="47.00" departLane="top2C3_0" departPos="5.10" departSpeed="0.00" departDelay="0.00" arrival="161.00" arrivalLane="A3top0_0" arrivalPos="286.40" arrivalSpeed="13.37" duration="114.00" routeLength="1161.43" waitingTime="14.00" waitingCount="2" stopTime="0.00" timeLoss="32.25" rerouteNo="0" devices="tripinfo_5" vType="DEFAULT_VEHTYPE" speedFactor="1.04" vaporized=""/>
    <tripinfo id="7" depart="52.00" departLane="bottom1B0_0" departPos="5.10" departSpeed="0.00" departDelay="0.00" arrival="169.00" arrivalLane="A0bottom0_0" arrivalPos="286.40" arrivalSpeed="13.99" duration="117.00" routeLength="894.86" waitingTime="38.00" waitingCount="2" stopTime="0.00" timeLoss="53.20" rerouteNo="0" devices="tripinfo_7" vType="DEFAULT_VEHTYPE" speedFactor="1.03" vaporized=""/>
    <tripinfo id="15" depart="101.00" departLane="top1B3_0" departPos="5.10" departSpeed="0.00" departDelay="0.00" arrival="186.00" arrivalLane="A3top0_0" arrivalPos="286.40" arrivalSpeed="11.46" duration="85.00" routeLength="858.56" waitingTime="1.00" waitingCount="1" stopTime="0.00" timeLoss="13.16" rerouteNo="0" devices="tripinfo_15" vType="DEFAULT_VEHTYPE" speedFactor="0.88" vaporized=""/>
    <tripinfo id="24" depart="148.00" departLane="left0A0_0" departPos="5.10" departSpeed="0.00" departDelay="0.00" arrival="200.00" arrivalLane="A0bottom0_0" arrivalPos="286.40" arrivalSpeed="14.92" duration="52.00" routeLength="576.73" waitingTime="1.00" waitingCount="1" stopTime="0.00" timeLoss="12.53" rerouteNo="0" devices="tripinfo_24" vType="DEFAULT_VEHTYPE" speedFactor="1.08" vaporized=""/>
    <tripinfo id="11" depart="67.00" departLane="top1B3_0" departPos="5.10" departSpeed="0.00" departDelay="0.00" arrival="218.00" arrivalLane="A1left1_0" arrivalPos="286.40" arrivalSpeed="14.24" duration="151.00" routeLength="1479.94" waitingTime="17.00" waitingCount="3" stopTime="0.00" timeLoss="48.42" rerouteNo="0" devices="tripinfo_11" vType="DEFAULT_VEHTYPE" speedFactor="1.05" vaporized=""/>
    <tripinfo id="16" depart="108.00" departLane="left0A0_0" departPos="5.10" departSpeed="0.00" departDelay="0.00" arrival="229.00" arrivalLane="C0bottom2_0" arrivalPos="286.40" arrivalSpeed="13.73" duration="121.00" routeLength="1177.07" waitingTime="19.00" waitingCount="2" stopTime="0.00" timeLoss="37.69" rerouteNo="0" devices="tripinfo_16" vType="DEFAULT_VEHTYPE" speedFactor="1.03" vaporized=""/>
    <tripinfo id="13" depart="92.00" departLane="top2C3_0" departPos="5.10" departSpeed="0.00" departDelay="0.00" arrival="242.00" arrivalLane="D0bottom3_0" arrivalPos="286.40" arrivalSpeed="13.63" duration="150.00" routeLength="1782.59" waitingTime="1.00" waitingCount="1" stopTime="0.00" timeLoss="20.64" rerouteNo="0" devices="tripinfo_13" vType="DEFAULT_VEHTYPE" speedFactor="1.00" vaporized=""/>
    <tripinfo id="2" depart="22.00" departLane="left1A1_0" departPos="5.10" departSpeed="0.00" departDelay="0.00" arrival="247.00" arrivalLane="C3top2_0" arrivalPos="286.40" arrivalSpeed="15.49" duration="225.00" routeLength="1795.52" waitingTime="81.00" waitingCount="4" stopTime="0.00" timeLoss="109.42" rerouteNo="0" devices="tripinfo_2" vType="DEFAULT_VEHTYPE" speedFactor="1.13" vaporized=""/>
    <tripinfo id="22" depart="144.00" departLane="top3D3_0" departPos="5.10" departSpeed="0.00" departDelay="0.00" arrival="248.00" arrivalLane="D2right2_0" arrivalPos="286.40" arrivalSpeed="13.81" duration="104.00" routeLength="897.72" waitingTime="30.00" waitingCount="1" stopTime="0.00" timeLoss="43.13" rerouteNo="0" devices="tripinfo_22" vType="DEFAULT_VEHTYPE" speedFactor="1.08" vaporized=""/>
    <tripinfo id="19" depart="126.00" departLane="right1D1_0" departPos="5.10" departSpeed="0.00" departDelay="0.00" arrival="259.00" arrivalLane="D3top3_0" arrivalPos="286.40" arrivalSpeed="13.59" duration="133.00" routeLength="1179.77" waitingTime="34.00" waitingCount="1" stopTime="0.00" timeLoss="49.45" rerouteNo="0" devices="tripinfo_19" vType="DEFAULT_VEHTYPE" speedFactor="1.03" vaporized=""/>
    <tripinfo id="18" depart="120.00" departLane="left1A1_0" departPos="5.10" departSpeed="0.00" departDelay="0.00" arrival="260.00" arrivalLane="B3top1_0" arrivalPos="286.40" arrivalSpeed="12.22" duration="140.00" routeLength="1495.35" waitingTime="8.00" waitingCount="2" stopTime="0.00" timeLoss="27.29" rerouteNo="0" devices="tripinfo_18" vType="DEFAULT_VEHTYPE" speedFactor="0.97" vaporized=""/>
    <tripinfo id="12" depart="81.00" departLane="top3D3_0" departPos="5.10" departSpeed="0.00" departDelay="0.00" arrival="264.00" arrivalLane="A2left2_0" arrivalPos="286.40" arrivalSpeed="13.05" duration="183.00" routeLength="1780.11" waitingTime="23.00" waitingCount="3" stopTime="0.00" timeLoss="46.60" rerouteNo="0" devices="tripinfo_12" vType="DEFAULT_VEHTYPE" speedFactor="0.95" vaporized=""/>
    <tripinfo id="30" depart="170.00" departLane="right2D2_0" departPos="5.10" departSpeed="0.00" departDelay="0.00" arrival="266.00" arrivalLane="C3top2_0" arrivalPos="286.40" arrivalSpeed="15.96" duration="96.00" routeLength="1179.77" waitingTime="1.00" waitingCount="1" stopTime="0.00" timeLoss="23.03" rerouteNo="0" devices="tripinfo_30" vType="DEFAULT_VEHTYPE" speedFactor="1.19" vaporized=""/>
    <tripinfo id="35" depart="196.00" departLane="top2C3_0" departPos="5.10" departSpeed="0.00" departDelay="0.00" arrival="270.00" arrivalLane="B3top1_0" arrivalPos="286.40" arrivalSpeed="15.06" duration="74.00" routeLength="858.56" waitingTime="2.00" waitingCount="2" stopTime="0.00" timeLoss="18.70" rerouteNo="0" devices="tripinfo_35" vType="DEFAULT_VEHTYPE" speedFactor="1.15" vaporized=""/>
    <tripinfo id="10" depart="67.00" departLane="top2C3_0" departPos="5.10" departSpeed="0.00" departDelay="0.00" arrival="287.00" arrivalLane="A0left0_0" arrivalPos="286.40" arrivalSpeed="14.90" duration="220.00" routeLength="2080.28" waitingTime="44.00" waitingCount="5" stopTime="0.00" timeLoss="80.54" rerouteNo="0" devices="tripinfo_10" vType="DEFAULT_VEHTYPE" speedFactor="1.08" vaporized=""/>
    <tripinfo id="39" depart="219.00" departLane="left3A3_0" departPos="5.10" departSpeed="0.00" departDelay="0.00" arrival="293.00" arrivalLane="A2left2_0" arrivalPos="286.40" arrivalSpeed="12.78" duration="74.00" routeLength="858.56" waitingTime="0.00" waitingCount="0" stopTime="0.00" timeLoss="8.95" rerouteNo="0" devices="tripinfo_39" vType="DEFAULT_VEHTYPE" speedFactor="0.99" vaporized=""/>
    <tripinfo id="8" depart="54.00" departLane="right2D2_0" departPos="5.10" departSpeed="0.00" departDelay="0.00" arrival="300.00" arrivalLane="A0bottom0_0" arrivalPos="286.40" arrivalSpeed="13.09" duration="246.00" routeLength="2095.69" waitingTime="56.00" waitingCount="4" stopTime="0.00" timeLoss="88.02" rerouteNo="0" devices="tripinfo_8" vType="DEFAULT_VEHTYPE" speedFactor="0.96" vaporized=""/>
    <tripinfo id="38" depart="214.00" departLane="left2A2_0" departPos="5.10" departSpeed="0.00" departDelay="0.00" arrival="314.00" arrivalLane="A0bottom0_0" arrivalPos="286.40" arrivalSpeed="16.95" duration="100.00" routeLength="1179.77" waitingTime="11.00" waitingCount="2" stopTime="0.00" timeLoss="29.55" rerouteNo="0" devices="tripinfo_38" vType="DEFAULT_VEHTYPE" speedFactor="1.23" vaporized=""/>
    <tripinfo id="20" depart="133.00" departLane="right1D1_0" departPos="5.10" departSpeed="0.00" departDelay="0.00" arrival="316.00" arrivalLane="B0bottom1_0" arrivalPos="286.40" arrivalSpeed="12.20" duration="183.00" routeLength="1495.35" waitingTime="42.00" waitingCount="2" stopTime="0.00" timeLoss="65.19" rerouteNo="0" devices="tripinfo_20" vType="DEFAULT_VEHTYPE" speedFactor="0.92" vaporized=""/>
    <tripinfo id="42" depart="227.00" departLane="right2D2_0" departPos="5.10" departSpeed="0.00" departDelay="0.00" arrival="317.00" arrivalLane="D3top3_0" arrivalPos="286.40" arrivalSpeed="14.27" duration="90.00" routeLength="879.60" waitingTime="12.00" waitingCount="2" stopTime="0.00" timeLoss="31.81" rerouteNo="0" devices="tripinfo_42" vType="DEFAULT_VEHTYPE" speedFactor="1.10" vaporized=""/>
    <tripinfo id="45" depart="239.00" departLane="top0A3_0" departPos="5.10" departSpeed="0.00" departDelay="0.00" arrival="318.00" arrivalLane="A2left2_0" arrivalPos="286.40" arrivalSpeed="13.09" duration="79.00" routeLength="876.90" waitingTime="1.00" waitingCount="1" stopTime="0.00" timeLoss="15.80" rerouteNo="0" devices="tripinfo_45" vType="DEFAULT_VEHTYPE" speedFactor="1.01" vaporized=""/>
    <tripinfo id="25" depart="151.00" departLane="left0A0_0" departPos="5.10" departSpeed="0.00" departDelay="3.00" arrival="320.00" arrivalLane="B3top1_1" arrivalPos="286.40" arrivalSpeed="14.26" duration="169.00" routeLength="1795.52" waitingTime="17.00" waitingCount="3" stopTime="0.00" timeLoss="44.69" rerouteNo="0" devices="tripinfo_25" vType="DEFAULT_VEHTYPE" speedFactor="1.05" vaporized=""/>
    <tripinfo id="6" depart="51.00" departLane="bottom0A0_0" departPos="5.10" departSpeed="0.00" departDelay="0.00" arrival="321.00" arrivalLane="B3top1_0" arrivalPos="286.40" arrivalSpeed="11.69" duration="270.00" routeLength="1782.72" waitingTime="90.00" waitingCount="5" stopTime="0.00" timeLoss="124.14" rerouteNo="0" devices="tripinfo_6" vType="DEFAULT_VEHTYPE" speedFactor="0.89" vaporized=""/>
    <tripinfo id="26" depart="155.00" departLane="right2D2_0" departPos="5.10" departSpeed="0.00" departDelay="0.00" arrival="321.00" arrivalLane="D0right0_0" arrivalPos="286.40" arrivalSpeed="13.96" duration="166.00" routeLength="1197.66" waitingTime="64.00" waitingCount="2" stopTime="0.00" timeLoss="81.92" rerouteNo="0" devices="tripinfo_26" vType="DEFAULT_VEHTYPE" speedFactor="1.04" vaporized=""/>
    <tripinfo id="14" depart="97.00" departLane="bottom1B0_0" departPos="5.10" departSpeed="0.00" departDelay="0.00" arrival="326.00" arrivalLane="D3top3_0" arrivalPos="286.40" arrivalSpeed="16.02" duration="229.00" routeLength="2082.76" waitingTime="59.00" waitingCount="6" stopTime="0.00" timeLoss="98.48" rerouteNo="0" devices="tripinfo_14" vType="DEFAULT_VEHTYPE" speedFactor="1.16" vaporized=""/>
    <tripinfo id="27" depart="162.00" departLane="bottom2C0_0" departPos="5.10" departSpeed="0.00" departDelay="0.00" arrival="328.00" arrivalLane="C3top2_0" arrivalPos="286.40" arrivalSpeed="13.69" duration="166.00" routeLength="1495.58" waitingTime="33.00" waitingCount="4" stopTime="0.00" timeLoss="65.96" rerouteNo="0" devices="tripinfo_27" vType="DEFAULT_VEHTYPE" speedFactor="1.08" vaporized=""/>
    <tripinfo id="46" depart="239.00" departLane="bottom0A0_0" departPos="5.10" departSpeed="0.00" departDelay="0.00" arrival="328.00" arrivalLane="B0bottom1_0" arrivalPos="286.40" arrivalSpeed="10.96" duration="89.00" routeLength="858.56" waitingTime="1.00" waitingCount="1" stopTime="0.00" timeLoss="14.44" rerouteNo="0" devices="tripinfo_46" vType="DEFAULT_VEHTYPE" speedFactor="0.84" vaporized=""/>
    <tripinfo id="48" depart="251.00" departLane="left2A2_0" departPos="5.10" departSpeed="0.00" departDelay="0.00" arrival="339.00" arrivalLane="A3left3_0" arrivalPos="286.40" arrivalSpeed="14.47" duration="88.00" routeLength="894.86" waitingTime="15.00" waitingCount="1" stopTime="0.00" timeLoss="27.13" rerouteNo="0" devices="tripinfo_48" vType="DEFAULT_VEHTYPE" speedFactor="1.08" vaporized=""/>
    <tripinfo id="3" depart="31.00" departLane="bottom2C0_0" departPos="5.10" departSpeed="0.00" departDelay="0.00" arrival="340.00" arrivalLane="A3top0_0" arrivalPos="286.40" arrivalSpeed="13.47" duration="309.00" routeLength="2080.05" waitingTime="112.00" waitingCount="6" stopTime="0.00" timeLoss="152.85" rerouteNo="0" devices="tripinfo_3" vType="DEFAULT_VEHTYPE" speedFactor="0.97" vaporized=""/>
    <tripinfo id="49" depart="254.00" departLane="bottom2C0_0" departPos="5.10" departSpeed="0.00" departDelay="0.00" arrival="340.00" arrivalLane="D0right0_0" arrivalPos="286.40" arrivalSpeed="12.59" duration="86.00" routeLength="879.60" waitingTime="6.00" waitingCount="1" stopTime="0.00" timeLoss="19.02" rerouteNo="0" devices="tripinfo_49" vType="DEFAULT_VEHTYPE" speedFactor="0.96" vaporized=""/>
    <tripinfo id="33" depart="186.00" departLane="right2D2_0" departPos="5.10" departSpeed="0.00" departDelay="0.00" arrival="350.00" arrivalLane="A2left2_0" arrivalPos="286.40" arrivalSpeed="12.15" duration="164.00" routeLength="1495.58" waitingTime="27.00" waitingCount="3" stopTime="0.00" timeLoss="49.29" rerouteNo="0" devices="tripinfo_33" vType="DEFAULT_VEHTYPE" speedFactor="0.94" vaporized=""/>
    <tripinfo id="9" depart="61.00" departLane="top1B3_0" departPos="5.10" departSpeed="0.00" departDelay="0.00" arrival="353.00" arrivalLane="D0bottom3_0" arrivalPos="286.40" arrivalSpeed="10.87" duration="292.00" routeLength="2080.05" waitingTime="75.00" waitingCount="4" stopTime="0.00" timeLoss="113.93" rerouteNo="0" devices="tripinfo_9" vType="DEFAULT_VEHTYPE" speedFactor="0.85" vaporized=""/>
    <tripinfo id="36" depart="197.00" departLane="right3D3_0" departPos="5.10" departSpeed="0.00" departDelay="0.00" arrival="358.00" arrivalLane="D3right3_0" arrivalPos="286.40" arrivalSpeed="13.51" duration="161.00" routeLength="1745.91" waitingTime="4.00" waitingCount="3" stopTime="0.00" timeLoss="37.47" rerouteNo="0" devices="tripinfo_36" vType="DEFAULT_VEHTYPE" speedFactor="1.04" vaporized=""/>
    <tripinfo id="28" depart="163.00" departLane="top1B3_0" departPos="5.10" departSpeed="0.00" departDelay="0.00" arrival="374.00" arrivalLane="A0bottom0_0" arrivalPos="286.40" arrivalSpeed="10.54" duration="211.00" routeLength="1782.72" waitingTime="27.00" waitingCount="2" stopTime="0.00" timeLoss="53.05" rerouteNo="0" devices="tripinfo_28" vType="DEFAULT_VEHTYPE" speedFactor="0.82" vaporized=""/>
    <tripinfo id="17" depart="111.00" departLane="left0A0_0" departPos="5.10" departSpeed="0.00" departDelay="2.00" arrival="387.00" arrivalLane="D3right3_0" arrivalPos="286.40" arrivalSpeed="15.03" duration="276.00" routeLength="2380.22" waitingTime="82.00" waitingCount="5" stopTime="0.00" timeLoss="123.97" rerouteNo="0" devices="tripinfo_17" vType="DEFAULT_VEHTYPE" speedFactor="1.14" vaporized=""/>
    <tripinfo id="23" depart="144.00" departLane="right3D3_0" departPos="5.10" departSpeed="0.00" departDelay="0.00" arrival="392.00" arrivalLane="C0bottom2_0" arrivalPos="286.40" arrivalSpeed="12.35" duration="248.00" routeLength="1795.52" waitingTime="71.00" waitingCount="4" stopTime="0.00" timeLoss="104.13" rerouteNo="0" devices="tripinfo_23" vType="DEFAULT_VEHTYPE" speedFactor="0.91" vaporized=""/>
    <tripinfo id="47" depart="239.00" departLane="left3A3_0" departPos="5.10" departSpeed="0.00" departDelay="0.00" arrival="406.00" arrivalLane="A3left3_0" arrivalPos="286.40" arrivalSpeed="15.55" duration="167.00" routeLength="1748.75" waitingTime="28.00" waitingCount="4" stopTime="0.00" timeLoss="60.13" rerouteNo="0" devices="tripinfo_47" vType="DEFAULT_VEHTYPE" speedFactor="1.20" vaporized=""/>
    <tripinfo id="52" depart="276.00" departLane="right0D0_0" departPos="5.10" departSpeed="0.00" departDelay="0.00" arrival="406.00" arrivalLane="D2right2_0" arrivalPos="286.40" arrivalSpeed="14.33" duration="130.00" routeLength="1161.43" waitingTime="26.00" waitingCount="2" stopTime="0.00" timeLoss="49.07" rerouteNo="0" devices="tripinfo_52" vType="DEFAULT_VEHTYPE" speedFactor="1.05" vaporized=""/>
    <tripinfo id="21" depart="137.00" departLane="bottom3D0_0" departPos="5.10" departSpeed="0.00" departDelay="0.00" arrival="431.00" arrivalLane="B3top1_0" arrivalPos="286.40" arrivalSpeed="12.92" duration="294.00" routeLength="2080.05" waitingTime="90.00" waitingCount="6" stopTime="0.00" timeLoss="131.32" rerouteNo="0" devices="tripinfo_21" vType="DEFAULT_VEHTYPE" speedFactor="0.93" vaporized=""/>
    <tripinfo id="29" depart="165.00" departLane="right0D0_0" departPos="5.10" departSpeed="0.00" departDelay="0.00" arrival="431.00" arrivalLane="A3top0_0" arrivalPos="286.40" arrivalSpeed="13.58" duration="266.00" routeLength="2380.45" waitingTime="58.00" waitingCount="5" stopTime="0.00" timeLoss="95.91" rerouteNo="0" devices="tripinfo_29" vType="DEFAULT_VEHTYPE" speedFactor="1.01" vaporized=""/>
    <tripinfo id="41" depart="221.00" departLane="right1D1_0" departPos="5.10" departSpeed="0.00" departDelay="0.00" arrival="433.00" arrivalLane="A0bottom0_1" arrivalPos="286.40" arrivalSpeed="12.07" duration="212.00" routeLength="1795.52" waitingTime="42.00" waitingCount="4" stopTime="0.00" timeLoss="75.84" rerouteNo="0" devices="tripinfo_41" vType="DEFAULT_VEHTYPE" speedFactor="0.96" vaporized=""/>
    <tripinfo id="34" depart="195.00" departLane="top1B3_0" departPos="5.10" departSpeed="0.00" departDelay="0.00" arrival="436.00" arrivalLane="A0bottom0_0" arrivalPos="286.40" arrivalSpeed="9.88" duration="241.00" routeLength="1782.72" waitingTime="43.00" waitingCount="4" stopTime="0.00" timeLoss="74.63" rerouteNo="0" devices="tripinfo_34" vType="DEFAULT_VEHTYPE" speedFactor="0.78" vaporized=""/>
    <tripinfo id="50" depart="255.00" departLane="top3D3_0" departPos="5.10" departSpeed="0.00" departDelay="0.00" arrival="439.00" arrivalLane="D0bottom3_0" arrivalPos="286.40" arrivalSpeed="14.38" duration="184.00" routeLength="1495.58" waitingTime="48.00" waitingCount="4" stopTime="0.00" timeLoss="79.90" rerouteNo="0" devices="tripinfo_50" vType="DEFAULT_VEHTYPE" speedFactor="1.04" vaporized=""/>
    <tripinfo id="64" depart="347.00" departLane="left2A2_0" departPos="5.10" departSpeed="0.00" departDelay="0.00" arrival="441.00" arrivalLane="A3left3_0" arrivalPos="286.40" arrivalSpeed="13.27" duration="94.00" routeLength="894.86" waitingTime="17.00" waitingCount="1" stopTime="0.00" timeLoss="30.37" rerouteNo="0" devices="tripinfo_64" vType="DEFAULT_VEHTYPE" speedFactor="1.03" vaporized=""/>
    <tripinfo id="61" depart="316.00" departLane="left3A3_0" departPos="5.10" departSpeed="0.00" departDelay="0.00" arrival="450.00" arrivalLane="C3top2_0" arrivalPos="286.40" arrivalSpeed="12.57" duration="134.00" routeLength="1197.89" waitingTime="25.00" waitingCount="3" stopTime="0.00" timeLoss="45.32" rerouteNo="0" devices="tripinfo_61" vType="DEFAULT_VEHTYPE" speedFactor="0.99" vaporized=""/>
    <tripinfo id="51" depart="276.00" departLane="right3D3_0" departPos="5.10" departSpeed="0.00" departDelay="0.00" arrival="458.00" arrivalLane="D0right0_0" arrivalPos="286.40" arrivalSpeed="15.17" duration="182.00" routeLength="1497.83" waitingTime="50.00" waitingCount="4" stopTime="0.00" timeLoss="82.58" rerouteNo="0" devices="tripinfo_51" vType="DEFAULT_VEHTYPE" speedFactor="1.10" vaporized=""/>
    <tripinfo id="44" depart="238.00" departLane="right2D2_0" departPos="5.10" departSpeed="0.00" departDelay="0.00" arrival="460.00" arrivalLane="C0bottom2_0" arrivalPos="286.40" arrivalSpeed="13.27" duration="222.00" routeLength="1495.35" waitingTime="85.00" waitingCount="3" stopTime="0.00" timeLoss="110.68" rerouteNo="0" devices="tripinfo_44" vType="DEFAULT_VEHTYPE" speedFactor="0.98" vaporized=""/>
    <tripinfo id="69" depart="369.00" departLane="left2A2_0" departPos="5.10" departSpeed="0.00" departDelay="0.00" arrival="470.00" arrivalLane="A0bottom0_1" arrivalPos="286.40" arrivalSpeed="14.37" duration="101.00" routeLength="1179.77" waitingTime="5.00" waitingCount="1" stopTime="0.00" timeLoss="19.81" rerouteNo="0" devices="tripinfo_69" vType="DEFAULT_VEHTYPE" speedFactor="1.06" vaporized=""/>
    <tripinfo id="80" depart="401.00" departLane="top0A3_0" departPos="5.10" departSpeed="0.00" departDelay="0.00" arrival="471.00" arrivalLane="B3top1_0" arrivalPos="286.40" arrivalSpeed="14.13" duration="70.00" routeLength="894.86" waitingTime="0.00" waitingCount="0" stopTime="0.00" timeLoss="9.76" rerouteNo="0" devices="tripinfo_80" vType="DEFAULT_VEHTYPE" speedFactor="1.09" vaporized=""/>
    <tripinfo id="70" depart="371.00" departLane="left1A1_0" departPos="5.10" departSpeed="0.00" departDelay="0.00" arrival="472.00" arrivalLane="A0bottom0_0" arrivalPos="286.40" arrivalSpeed="11.67" duration="101.00" routeLength="879.60" waitingTime="11.00" waitingCount="2" stopTime="0.00" timeLoss="29.19" rerouteNo="0" devices="tripinfo_70" vType="DEFAULT_VEHTYPE" speedFactor="0.89" vaporized=""/>
    <tripinfo id="43" depart="234.00" departLane="left1A1_0" departPos="5.10" departSpeed="0.00" departDelay="0.00" arrival="478.00" arrivalLane="D0right0_0" arrivalPos="286.40" arrivalSpeed="13.88" duration="244.00" routeLength="1782.72" waitingTime="89.00" waitingCount="5" stopTime="0.00" timeLoss="124.32" rerouteNo="0" devices="tripinfo_43" vType="DEFAULT_VEHTYPE" speedFactor="1.09" vaporized=""/>
    <tripinfo id="57" depart="310.00" departLane="top1B3_0" departPos="5.10" departSpeed="0.00" departDelay="0.00" arrival="478.00" arrivalLane="C0bottom2_0" arrivalPos="286.40" arrivalSpeed="13.01" duration="168.00" routeLength="1782.59" waitingTime="14.00" waitingCount="3" stopTime="0.00" timeLoss="41.48" rerouteNo="0" devices="tripinfo_57" vType="DEFAULT_VEHTYPE" speedFactor="1.02" vaporized=""/>
    <tripinfo id="62" depart="319.00" departLane="top2C3_0" departPos="5.10" departSpeed="0.00" departDelay="0.00" arrival="478.00" arrivalLane="C0bottom2_1" arrivalPos="286.40" arrivalSpeed="16.13" duration="159.00" routeLength="1495.58" waitingTime="34.00" waitingCount="3" stopTime="0.00" timeLoss="66.37" rerouteNo="0" devices="tripinfo_62" vType="DEFAULT_VEHTYPE" speedFactor="1.17" vaporized=""/>
    <tripinfo id="53" depart="289.00" departLane="bottom3D0_0" departPos="5.10" departSpeed="0.00" departDelay="0.00" arrival="491.00" arrivalLane="A0left0_0" arrivalPos="286.40" arrivalSpeed="11.41" duration="202.00" routeLength="1495.35" waitingTime="52.00" waitingCount="4" stopTime="0.00" timeLoss="82.60" rerouteNo="0" devices="tripinfo_53" vType="DEFAULT_VEHTYPE" speedFactor="0.91" vaporized=""/>
    <tripinfo id="58" depart="313.00" departLane="left3A3_0" departPos="5.10" departSpeed="0.00" departDelay="0.00" arrival="491.00" arrivalLane="A3left3_0" arrivalPos="286.40" arrivalSpeed="11.90" duration="178.00" routeLength="1748.75" waitingTime="7.00" waitingCount="4" stopTime="0.00" timeLoss="37.16" rerouteNo="0" devices="tripinfo_58" vType="DEFAULT_VEHTYPE" speedFactor="0.91" vaporized=""/>
    <tripinfo id="63" depart="343.00" departLane="left0A0_0" departPos="5.10" departSpeed="0.00" departDelay="0.00" arrival="491.00" arrivalLane="C0bottom2_0" arrivalPos="286.40" arrivalSpeed="10.28" duration="148.00" routeLength="1177.07" waitingTime="17.00" waitingCount="3" stopTime="0.00" timeLoss="39.00" rerouteNo="0" devices="tripinfo_63" vType="DEFAULT_VEHTYPE" speedFactor="0.79" vaporized=""/>
    <tripinfo id="40" depart="220.00" departLane="bottom1B0_0" departPos="5.10" departSpeed="0.00" departDelay="0.00" arrival="498.00" arrivalLane="D3right3_0" arrivalPos="286.40" arrivalSpeed="13.65" duration="278.00" routeLength="2080.28" waitingTime="92.00" waitingCount="6" stopTime="0.00" timeLoss="133.94" rerouteNo="0" devices="tripinfo_40" vType="DEFAULT_VEHTYPE" speedFactor="1.04" vaporized=""/>
    <tripinfo id="60" depart="315.00" departLane="right1D1_0" departPos="5.10" departSpeed="0.00" departDelay="0.00" arrival="500.00" arrivalLane="B0bottom1_0" arrivalPos="286.40" arrivalSpeed="14.14" duration="185.00" routeLength="1495.35" waitingTime="64.00" waitingCount="2" stopTime="0.00" timeLoss="82.06" rerouteNo="0" devices="tripinfo_60" vType="DEFAULT_VEHTYPE" speedFactor="1.06" vaporized=""/>
    <tripinfo id="68" depart="366.00" departLane="right0D0_0" departPos="5.10" departSpeed="0.00" departDelay="0.00" arrival="502.00" arrivalLane="D3right3_0" arrivalPos="286.40" arrivalSpeed="15.99" duration="136.00" routeLength="1461.60" waitingTime="15.00" waitingCount="4" stopTime="0.00" timeLoss="44.24" rerouteNo="0" devices="tripinfo_68" vType="DEFAULT_VEHTYPE" speedFactor="1.16" vaporized=""/>
    <tripinfo id="79" depart="399.00" departLane="right1D1_0" departPos="5.10" departSpeed="0.00" departDelay="0.00" arrival="507.00" arrivalLane="D3top3_0" arrivalPos="286.40" arrivalSpeed="14.10" duration="108.00" routeLength="1179.77" waitingTime="4.00" waitingCount="3" stopTime="0.00" timeLoss="28.23" rerouteNo="0" devices="tripinfo_79" vType="DEFAULT_VEHTYPE" speedFactor="1.08" vaporized=""/>
    <tripinfo id="31" depart="182.00" departLane="left0A0_0" departPos="5.10" departSpeed="0.00" departDelay="0.00" arrival="510.00" arrivalLane="D2right2_0" arrivalPos="286.40" arrivalSpeed="12.87" duration="328.00" routeLength="2080.05" waitingTime="138.00" waitingCount="4" stopTime="0.00" timeLoss="171.03" rerouteNo="0" devices="tripinfo_31" vType="DEFAULT_VEHTYPE" speedFactor="0.97" vaporized=""/>
    <tripinfo id="54" depart="299.00" departLane="left1A1_0" departPos="5.10" departSpeed="0.00" departDelay="0.00" arrival="510.00" arrivalLane="D2right2_1" arrivalPos="286.40" arrivalSpeed="14.01" duration="211.00" routeLength="1782.59" waitingTime="53.00" waitingCount="4" stopTime="0.00" timeLoss="88.73" rerouteNo="0" devices="tripinfo_54" vType="DEFAULT_VEHTYPE" speedFactor="1.06" vaporized=""/>
    <tripinfo id="65" depart="354.00" departLane="left3A3_0" departPos="5.10" departSpeed="0.00" departDelay="0.00" arrival="517.00" arrivalLane="D3top3_1" arrivalPos="286.40" arrivalSpeed="17.17" duration="163.00" routeLength="1498.06" waitingTime="49.00" waitingCount="2" stopTime="0.00" timeLoss="75.77" rerouteNo="0" devices="tripinfo_65" vType="DEFAULT_VEHTYPE" speedFactor="1.25" vaporized=""/>
    <tripinfo id="32" depart="185.00" departLane="top0A3_0" departPos="5.10" departSpeed="0.00" departDelay="0.00" arrival="518.00" arrivalLane="D0bottom3_0" arrivalPos="286.40" arrivalSpeed="13.32" duration="333.00" routeLength="2380.22" waitingTime="120.00" waitingCount="4" stopTime="0.00" timeLoss="156.94" rerouteNo="0" devices="tripinfo_32" vType="DEFAULT_VEHTYPE" speedFactor="0.99" vaporized=""/>
    <tripinfo id="37" depart="206.00" departLane="bottom0A0_0" departPos="5.10" departSpeed="0.00" departDelay="0.00" arrival="519.00" arrivalLane="D3top3_0" arrivalPos="286.40" arrivalSpeed="12.70" duration="313.00" routeLength="2382.93" waitingTime="101.00" waitingCount="5" stopTime="0.00" timeLoss="140.12" rerouteNo="0" devices="tripinfo_37" vType="DEFAULT_VEHTYPE" speedFactor="1.00" vaporized=""/>
    <tripinfo id="81" depart="404.00" departLane="top0A3_0" departPos="5.10" departSpeed="0.00" departDelay="1.00" arrival="522.00" arrivalLane="B3top1_0" arrivalPos="286.40" arrivalSpeed="11.89" duration="118.00" routeLength="894.86" waitingTime="31.00" waitingCount="2" stopTime="0.00" timeLoss="46.04" rerouteNo="0" devices="tripinfo_81" vType="DEFAULT_VEHTYPE" speedFactor="0.91" vaporized=""/>
    <tripinfo id="75" depart="386.00" departLane="left0A0_0" departPos="5.10" departSpeed="0.00" departDelay="0.00" arrival="527.00" arrivalLane="A2left2_0" arrivalPos="286.40" arrivalSpeed="15.39" duration="141.00" routeLength="1197.66" waitingTime="37.00" waitingCount="3" stopTime="0.00" timeLoss="62.45" rerouteNo="0" devices="tripinfo_75" vType="DEFAULT_VEHTYPE" speedFactor="1.12" vaporized=""/>
    <tripinfo id="67" depart="365.00" departLane="left0A0_0" departPos="5.10" departSpeed="0.00" departDelay="0.00" arrival="528.00" arrivalLane="A3left3_0" arrivalPos="286.40" arrivalSpeed="14.24" duration="163.00" routeLength="1497.83" waitingTime="25.00" waitingCount="4" stopTime="0.00" timeLoss="62.68" rerouteNo="0" devices="tripinfo_67" vType="DEFAULT_VEHTYPE" speedFactor="1.09" vaporized=""/>