<?xml version="1.0" encoding="UTF-8"?>

<!-- generated on 12/19/21 15:55:29 by Eclipse SUMO sumo Version 1.7.0
<configuration xmlns:xsi="http://www.w3.org/2001/XMLSchema-instance" xsi:noNamespaceSchemaLocation="http://sumo.dlr.de/xsd/sumoConfiguration.xsd">

    <input>
        <net-file value="C:\Users\longs\Desktop\RESCO-main\environments\grid4x4\grid4x4.net.xml"/>
        <route-files value="C:\Users\longs\Desktop\RESCO-main\environments\grid4x4\grid4x4_18.rou.xml"/>
    </input>

    <output>
        <tripinfo-output value="C:\Users\longs\Desktop\RESCO-main\logs\IDQN-tr1-grid4x4-0-drqlong-delaydiff_pressure05\tripinfo_18.xml"/>
        <tripinfo-output.write-unfinished value="true"/>
    </output>

    <processing>
        <time-to-teleport value="-1"/>
    </processing>

    <report>
        <no-warnings value="true"/>
        <no-step-log value="true"/>
    </report>

    <traci_server>
        <remote-port value="53665"/>
    </traci_server>

    <random_number>
        <random value="true"/>
    </random_number>

</configuration>
-->

<tripinfos xmlns:xsi="http://www.w3.org/2001/XMLSchema-instance" xsi:noNamespaceSchemaLocation="http://sumo.dlr.de/xsd/tripinfo_file.xsd">
    <tripinfo id="7" depart="25.00" departLane="bottom1B0_0" departPos="5.10" departSpeed="0.00" departDelay="0.00" arrival="139.00" arrivalLane="D0right0_0" arrivalPos="286.40" arrivalSpeed="13.79" duration="114.00" routeLength="1179.77" waitingTime="15.00" waitingCount="1" stopTime="0.00" timeLoss="29.78" rerouteNo="0" devices="tripinfo_7" vType="DEFAULT_VEHTYPE" speedFactor="1.03" vaporized=""/>
    <tripinfo id="3" depart="14.00" departLane="right3D3_0" departPos="5.10" departSpeed="0.00" departDelay="0.00" arrival="150.00" arrivalLane="C3top2_0" arrivalPos="286.40" arrivalSpeed="12.79" duration="136.00" routeLength="876.90" waitingTime="51.00" waitingCount="2" stopTime="0.00" timeLoss="69.16" rerouteNo="0" devices="tripinfo_3" vType="DEFAULT_VEHTYPE" speedFactor="0.96" vaporized=""/>
    <tripinfo id="8" depart="33.00" departLane="top0A3_0" departPos="5.10" departSpeed="0.00" departDelay="0.00" arrival="158.00" arrivalLane="C3top2_0" arrivalPos="286.40" arrivalSpeed="14.84" duration="125.00" routeLength="1197.66" waitingTime="17.00" waitingCount="3" stopTime="0.00" timeLoss="46.27" rerouteNo="0" devices="tripinfo_8" vType="DEFAULT_VEHTYPE" speedFactor="1.11" vaporized=""/>
    <tripinfo id="0" depart="5.00" departLane="bottom1B0_0" departPos="5.10" departSpeed="0.00" departDelay="0.00" arrival="167.00" arrivalLane="B0bottom1_0" arrivalPos="286.40" arrivalSpeed="14.37" duration="162.00" routeLength="1748.75" waitingTime="12.00" waitingCount="4" stopTime="0.00" timeLoss="46.68" rerouteNo="0" devices="tripinfo_0" vType="DEFAULT_VEHTYPE" speedFactor="1.11" vaporized=""/>
    <tripinfo id="19" depart="77.00" departLane="left2A2_0" departPos="5.10" departSpeed="0.00" departDelay="0.00" arrival="170.00" arrivalLane="A3left3_0" arrivalPos="286.40" arrivalSpeed="13.66" duration="93.00" routeLength="894.86" waitingTime="13.00" waitingCount="1" stopTime="0.00" timeLoss="26.37" rerouteNo="0" devices="tripinfo_19" vType="DEFAULT_VEHTYPE" speedFactor="0.99" vaporized=""/>
    <tripinfo id="6" depart="24.00" departLane="bottom0A0_0" departPos="5.10" departSpeed="0.00" departDelay="0.00" arrival="197.00" arrivalLane="A0bottom0_0" arrivalPos="286.40" arrivalSpeed="15.06" duration="173.00" routeLength="1748.75" waitingTime="24.00" waitingCount="4" stopTime="0.00" timeLoss="58.35" rerouteNo="0" devices="tripinfo_6" vType="DEFAULT_VEHTYPE" speedFactor="1.12" vaporized=""/>
    <tripinfo id="4" depart="15.00" departLane="top3D3_0" departPos="5.10" departSpeed="0.00" departDelay="0.00" arrival="203.00" arrivalLane="A3top0_0" arrivalPos="286.40" arrivalSpeed="13.16" duration="188.00" routeLength="1461.60" waitingTime="51.00" waitingCount="2" stopTime="0.00" timeLoss="80.99" rerouteNo="0" devices="tripinfo_4" vType="DEFAULT_VEHTYPE" speedFactor="1.00" vaporized=""/>
    <tripinfo id="11" depart="55.00" departLane="left1A1_0" departPos="5.10" departSpeed="0.00" departDelay="0.00" arrival="211.00" arrivalLane="D2right2_0" arrivalPos="286.40" arrivalSpeed="13.86" duration="156.00" routeLength="1782.59" waitingTime="8.00" waitingCount="2" stopTime="0.00" timeLoss="30.07" rerouteNo="0" devices="tripinfo_11" vType="DEFAULT_VEHTYPE" speedFactor="1.03" vaporized=""/>
    <tripinfo id="30" depart="121.00" departLane="bottom0A0_0" departPos="5.10" departSpeed="0.00" departDelay="0.00" arrival="211.00" arrivalLane="B0bottom1_0" arrivalPos="286.40" arrivalSpeed="11.42" duration="90.00" routeLength="858.56" waitingTime="1.00" waitingCount="1" stopTime="0.00" timeLoss="17.48" rerouteNo="0" devices="tripinfo_30" vType="DEFAULT_VEHTYPE" speedFactor="0.88" vaporized=""/>
    <tripinfo id="17" depart="68.00" departLane="left2A2_0" departPos="5.10" departSpeed="0.00" departDelay="2.00" arrival="217.00" arrivalLane="B3top1_0" arrivalPos="286.40" arrivalSpeed="14.34" duration="149.00" routeLength="1195.18" waitingTime="37.00" waitingCount="2" stopTime="0.00" timeLoss="69.66" rerouteNo="0" devices="tripinfo_17" vType="DEFAULT_VEHTYPE" speedFactor="1.10" vaporized=""/>
    <tripinfo id="18" depart="71.00" departLane="left2A2_0" departPos="5.10" departSpeed="0.00" departDelay="2.00" arrival="219.00" arrivalLane="B3top1_0" arrivalPos="286.40" arrivalSpeed="13.88" duration="148.00" routeLength="1195.18" waitingTime="34.00" waitingCount="2" stopTime="0.00" timeLoss="66.29" rerouteNo="0" devices="tripinfo_18" vType="DEFAULT_VEHTYPE" speedFactor="1.06" vaporized=""/>
    <tripinfo id="12" depart="58.00" departLane="left1A1_0" departPos="5.10" departSpeed="0.00" departDelay="0.00" arrival="220.00" arrivalLane="C0bottom2_0" arrivalPos="286.40" arrivalSpeed="13.31" duration="162.00" routeLength="1479.94" waitingTime="31.00" waitingCount="2" stopTime="0.00" timeLoss="51.82" rerouteNo="0" devices="tripinfo_12" vType="DEFAULT_VEHTYPE" speedFactor="0.98" vaporized=""/>
    <tripinfo id="33" depart="126.00" departLane="right3D3_0" departPos="5.10" departSpeed="0.00" departDelay="0.00" arrival="226.00" arrivalLane="B3top1_0" arrivalPos="286.40" arrivalSpeed="15.80" duration="100.00" routeLength="1177.07" waitingTime="12.00" waitingCount="1" stopTime="0.00" timeLoss="28.45" rerouteNo="0" devices="tripinfo_33" vType="DEFAULT_VEHTYPE" speedFactor="1.21" vaporized=""/>
    <tripinfo id="42" depart="154.00" departLane="left2A2_0" departPos="5.10" departSpeed="0.00" departDelay="0.00" arrival="249.00" arrivalLane="A3left3_0" arrivalPos="286.40" arrivalSpeed="13.62" duration="95.00" routeLength="894.86" waitingTime="17.00" waitingCount="1" stopTime="0.00" timeLoss="29.95" rerouteNo="0" devices="tripinfo_42" vType="DEFAULT_VEHTYPE" speedFactor="1.01" vaporized=""/>
    <tripinfo id="38" depart="144.00" departLane="left1A1_0" departPos="5.10" departSpeed="0.00" departDelay="0.00" arrival="250.00" arrivalLane="A3left3_1" arrivalPos="286.40" arrivalSpeed="14.08" duration="106.00" routeLength="1197.66" waitingTime="5.00" waitingCount="1" stopTime="0.00" timeLoss="25.80" rerouteNo="0" devices="tripinfo_38" vType="DEFAULT_VEHTYPE" speedFactor="1.09" vaporized=""/>
    <tripinfo id="39" depart="148.00" departLane="top2C3_0" departPos="5.10" departSpeed="0.00" departDelay="0.00" arrival="256.00" arrivalLane="A3top0_0" arrivalPos="286.40" arrivalSpeed="13.90" duration="108.00" routeLength="1161.43" waitingTime="3.00" waitingCount="3" stopTime="0.00" timeLoss="28.18" rerouteNo="0" devices="tripinfo_39" vType="DEFAULT_VEHTYPE" speedFactor="1.06" vaporized=""/>
    <tripinfo id="15" depart="65.00" departLane="left2A2_0" departPos="5.10" departSpeed="0.00" departDelay="0.00" arrival="261.00" arrivalLane="D3right3_0" arrivalPos="286.40" arrivalSpeed="13.11" duration="196.00" routeLength="1782.59" waitingTime="20.00" waitingCount="3" stopTime="0.00" timeLoss="59.85" rerouteNo="0" devices="tripinfo_15" vType="DEFAULT_VEHTYPE" speedFactor="0.96" vaporized=""/>
    <tripinfo id="25" depart="104.00" departLane="top2C3_0" departPos="5.10" departSpeed="0.00" departDelay="0.00" arrival="269.00" arrivalLane="D2right2_0" arrivalPos="286.40" arrivalSpeed="14.40" duration="165.00" routeLength="1195.18" waitingTime="57.00" waitingCount="3" stopTime="0.00" timeLoss="81.11" rerouteNo="0" devices="tripinfo_25" vType="DEFAULT_VEHTYPE" speedFactor="1.04" vaporized=""/>
    <tripinfo id="2" depart="13.00" departLane="left2A2_0" departPos="5.10" departSpeed="0.00" departDelay="0.00" arrival="273.00" arrivalLane="D1right1_0" arrivalPos="286.40" arrivalSpeed="13.72" duration="260.00" routeLength="1782.72" waitingTime="102.00" waitingCount="3" stopTime="0.00" timeLoss="129.39" rerouteNo="0" devices="tripinfo_2" vType="DEFAULT_VEHTYPE" speedFactor="1.00" vaporized=""/>
    <tripinfo id="21" depart="90.00" departLane="bottom2C0_0" departPos="5.10" departSpeed="0.00" departDelay="0.00" arrival="277.00" arrivalLane="C0bottom2_0" arrivalPos="286.40" arrivalSpeed="13.86" duration="187.00" routeLength="1748.75" waitingTime="37.00" waitingCount="3" stopTime="0.00" timeLoss="65.70" rerouteNo="0" devices="tripinfo_21" vType="DEFAULT_VEHTYPE" speedFactor="1.06" vaporized=""/>
    <tripinfo id="20" depart="88.00" departLane="top0A3_0" departPos="5.10" departSpeed="0.00" departDelay="0.00" arrival="280.00" arrivalLane="A3top0_0" arrivalPos="286.40" arrivalSpeed="13.43" duration="192.00" routeLength="1745.91" waitingTime="27.00" waitingCount="4" stopTime="0.00" timeLoss="59.91" rerouteNo="0" devices="tripinfo_20" vType="DEFAULT_VEHTYPE" speedFactor="0.98" vaporized=""/>
    <tripinfo id="28" depart="114.00" departLane="left0A0_0" departPos="5.10" departSpeed="0.00" departDelay="0.00" arrival="282.00" arrivalLane="A2left2_0" arrivalPos="286.40" arrivalSpeed="11.42" duration="168.00" routeLength="1197.66" waitingTime="46.00" waitingCount="2" stopTime="0.00" timeLoss="67.62" rerouteNo="0" devices="tripinfo_28" vType="DEFAULT_VEHTYPE" speedFactor="0.87" vaporized=""/>
    <tripinfo id="48" depart="191.00" departLane="top0A3_0" departPos="5.10" departSpeed="0.00" departDelay="0.00" arrival="286.00" arrivalLane="A2left2_0" arrivalPos="286.40" arrivalSpeed="13.62" duration="95.00" routeLength="876.90" waitingTime="15.00" waitingCount="2" stopTime="0.00" timeLoss="31.83" rerouteNo="0" devices="tripinfo_48" vType="DEFAULT_VEHTYPE" speedFactor="1.01" vaporized=""/>
    <tripinfo id="43" depart="159.00" departLane="right3D3_0" departPos="5.10" departSpeed="0.00" departDelay="0.00" arrival="292.00" arrivalLane="B3top1_0" arrivalPos="286.40" arrivalSpeed="12.99" duration="133.00" routeLength="1177.07" waitingTime="25.00" waitingCount="2" stopTime="0.00" timeLoss="43.82" rerouteNo="0" devices="tripinfo_43" vType="DEFAULT_VEHTYPE" speedFactor="0.96" vaporized=""/>
    <tripinfo id="22" depart="90.00" departLane="bottom0A0_0" departPos="5.10" departSpeed="0.00" departDelay="0.00" arrival="300.00" arrivalLane="B3top1_0" arrivalPos="286.40" arrivalSpeed="13.32" duration="210.00" routeLength="1782.72" waitingTime="59.00" waitingCount="2" stopTime="0.00" timeLoss="83.74" rerouteNo="0" devices="tripinfo_22" vType="DEFAULT_VEHTYPE" speedFactor="1.03" vaporized=""/>
    <tripinfo id="23" depart="98.00" departLane="top3D3_0" departPos="5.10" departSpeed="0.00" departDelay="0.00" arrival="309.00" arrivalLane="B0bottom1_0" arrivalPos="286.40" arrivalSpeed="13.37" duration="211.00" routeLength="2082.76" waitingTime="25.00" waitingCount="5" stopTime="0.00" timeLoss="64.48" rerouteNo="0" devices="tripinfo_23" vType="DEFAULT_VEHTYPE" speedFactor="1.04" vaporized=""/>
    <tripinfo id="24" depart="103.00" departLane="bottom1B0_0" departPos="5.10" departSpeed="0.00" departDelay="0.00" arrival="318.00" arrivalLane="C3top2_0" arrivalPos="286.40" arrivalSpeed="14.32" duration="215.00" routeLength="1782.72" waitingTime="62.00" waitingCount="3" stopTime="0.00" timeLoss="90.68" rerouteNo="0" devices="tripinfo_24" vType="DEFAULT_VEHTYPE" speedFactor="1.04" vaporized=""/>
    <tripinfo id="31" depart="122.00" departLane="right3D3_0" departPos="5.10" departSpeed="0.00" departDelay="0.00" arrival="318.00" arrivalLane="D0bottom3_0" arrivalPos="286.40" arrivalSpeed="13.73" duration="196.00" routeLength="1495.35" waitingTime="64.00" waitingCount="3" stopTime="0.00" timeLoss="91.45" rerouteNo="0" devices="tripinfo_31" vType="DEFAULT_VEHTYPE" speedFactor="1.03" vaporized=""/>
    <tripinfo id="14" depart="62.00" departLane="top1B3_0" departPos="5.10" departSpeed="0.00" departDelay="0.00" arrival="321.00" arrivalLane="D0bottom3_0" arrivalPos="286.40" arrivalSpeed="14.02" duration="259.00" routeLength="2080.05" waitingTime="76.00" waitingCount="3" stopTime="0.00" timeLoss="113.36" rerouteNo="0" devices="tripinfo_14" vType="DEFAULT_VEHTYPE" speedFactor="1.04" vaporized=""/>
    <tripinfo id="29" depart="118.00" departLane="left0A0_0" departPos="5.10" departSpeed="0.00" departDelay="0.00" arrival="322.00" arrivalLane="A3top0_0" arrivalPos="286.40" arrivalSpeed="11.36" duration="204.00" routeLength="1495.35" waitingTime="56.00" waitingCount="3" stopTime="0.00" timeLoss="79.20" rerouteNo="0" devices="tripinfo_29" vType="DEFAULT_VEHTYPE" speedFactor="0.87" vaporized=""/>
    <tripinfo id="45" depart="173.00" departLane="right2D2_0" departPos="5.10" departSpeed="0.00" departDelay="0.00" arrival="325.00" arrivalLane="C3top2_0" arrivalPos="286.40" arrivalSpeed="11.36" duration="152.00" routeLength="1179.77" waitingTime="32.00" waitingCount="2" stopTime="0.00" timeLoss="51.00" rerouteNo="0" devices="tripinfo_45" vType="DEFAULT_VEHTYPE" speedFactor="0.85" vaporized=""/>
    <tripinfo id="36" depart="141.00" departLane="top3D3_0" departPos="5.10" departSpeed="0.00" departDelay="0.00" arrival="326.00" arrivalLane="D0bottom3_0" arrivalPos="286.40" arrivalSpeed="11.61" duration="185.00" routeLength="1495.58" waitingTime="46.00" waitingCount="2" stopTime="0.00" timeLoss="67.86" rerouteNo="0" devices="tripinfo_36" vType="DEFAULT_VEHTYPE" speedFactor="0.92" vaporized=""/>
    <tripinfo id="1" depart="6.00" departLane="left2A2_0" departPos="5.10" departSpeed="0.00" departDelay="0.00" arrival="337.00" arrivalLane="C0bottom2_0" arrivalPos="286.40" arrivalSpeed="15.59" duration="331.00" routeLength="1780.11" waitingTime="173.00" waitingCount="5" stopTime="0.00" timeLoss="216.09" rerouteNo="0" devices="tripinfo_1" vType="DEFAULT_VEHTYPE" speedFactor="1.13" vaporized=""/>
    <tripinfo id="47" depart="189.00" departLane="left3A3_0" departPos="5.10" departSpeed="0.00" departDelay="0.00" arrival="337.00" arrivalLane="D3top3_0" arrivalPos="286.40" arrivalSpeed="14.52" duration="148.00" routeLength="1498.06" waitingTime="29.00" waitingCount="2" stopTime="0.00" timeLoss="51.35" rerouteNo="0" devices="tripinfo_47" vType="DEFAULT_VEHTYPE" speedFactor="1.13" vaporized=""/>
    <tripinfo id="52" depart="230.00" departLane="left0A0_0" departPos="5.10" departSpeed="0.00" departDelay="0.00" arrival="339.00" arrivalLane="A1left1_0" arrivalPos="286.40" arrivalSpeed="12.51" duration="109.00" routeLength="894.86" waitingTime="27.00" waitingCount="2" stopTime="0.00" timeLoss="42.73" rerouteNo="0" devices="tripinfo_52" vType="DEFAULT_VEHTYPE" speedFactor="0.99" vaporized=""/>
    <tripinfo id="54" depart="250.00" departLane="top2C3_0" departPos="5.10" departSpeed="0.00" departDelay="0.00" arrival="342.00" arrivalLane="A3left3_0" arrivalPos="286.40" arrivalSpeed="13.52" duration="92.00" routeLength="1179.77" waitingTime="0.00" waitingCount="0" stopTime="0.00" timeLoss="8.40" rerouteNo="0" devices="tripinfo_54" vType="DEFAULT_VEHTYPE" speedFactor="1.03" vaporized=""/>
    <tripinfo id="44" depart="160.00" departLane="right0D0_0" departPos="5.10" departSpeed="0.00" departDelay="0.00" arrival="345.00" arrivalLane="D0right0_0" arrivalPos="286.40" arrivalSpeed="13.68" duration="185.00" routeLength="1748.75" waitingTime="26.00" waitingCount="4" stopTime="0.00" timeLoss="61.94" rerouteNo="0" devices="tripinfo_44" vType="DEFAULT_VEHTYPE" speedFactor="1.04" vaporized=""/>
    <tripinfo id="32" depart="124.00" departLane="right1D1_0" departPos="5.10" departSpeed="0.00" departDelay="0.00" arrival="348.00" arrivalLane="B0bottom1_0" arrivalPos="286.40" arrivalSpeed="14.23" duration="224.00" routeLength="1495.35" waitingTime="88.00" waitingCount="4" stopTime="0.00" timeLoss="119.92" rerouteNo="0" devices="tripinfo_32" vType="DEFAULT_VEHTYPE" speedFactor="1.04" vaporized=""/>
    <tripinfo id="16" depart="66.00" departLane="top1B3_0" departPos="5.10" departSpeed="0.00" departDelay="0.00" arrival="353.00" arrivalLane="D0bottom3_0" arrivalPos="286.40" arrivalSpeed="11.76" duration="287.00" routeLength="2080.05" waitingTime="73.00" waitingCount="3" stopTime="0.00" timeLoss="109.74" rerouteNo="0" devices="tripinfo_16" vType="DEFAULT_VEHTYPE" speedFactor="0.86" vaporized=""/>
    <tripinfo id="5" depart="18.00" departLane="left0A0_0" departPos="5.10" departSpeed="0.00" departDelay="0.00" arrival="357.00" arrivalLane="D3right3_0" arrivalPos="286.40" arrivalSpeed="12.21" duration="339.00" routeLength="2380.22" waitingTime="104.00" waitingCount="5" stopTime="0.00" timeLoss="147.43" rerouteNo="0" devices="tripinfo_5" vType="DEFAULT_VEHTYPE" speedFactor="0.90" vaporized=""/>
    <tripinfo id="27" depart="114.00" departLane="top3D3_0" departPos="5.10" departSpeed="0.00" departDelay="0.00" arrival="360.00" arrivalLane="A2left2_0" arrivalPos="286.40" arrivalSpeed="12.83" duration="246.00" routeLength="1780.11" waitingTime="81.00" waitingCount="4" stopTime="0.00" timeLoss="113.86" rerouteNo="0" devices="tripinfo_27" vType="DEFAULT_VEHTYPE" speedFactor="0.98" vaporized=""/>
    <tripinfo id="40" depart="149.00" departLane="top1B3_0" departPos="5.10" departSpeed="0.00" departDelay="0.00" arrival="361.00" arrivalLane="A0left0_1" arrivalPos="286.40" arrivalSpeed="13.71" duration="212.00" routeLength="1780.11" waitingTime="54.00" waitingCount="3" stopTime="0.00" timeLoss="84.21" rerouteNo="0" devices="tripinfo_40" vType="DEFAULT_VEHTYPE" speedFactor="1.01" vaporized=""/>
    <tripinfo id="46" depart="180.00" departLane="right3D3_0" departPos="5.10" departSpeed="0.00" departDelay="0.00" arrival="361.00" arrivalLane="D3right3_0" arrivalPos="286.40" arrivalSpeed="11.88" duration="181.00" routeLength="1745.91" waitingTime="8.00" waitingCount="4" stopTime="0.00" timeLoss="39.79" rerouteNo="0" devices="tripinfo_46" vType="DEFAULT_VEHTYPE" speedFactor="0.91" vaporized=""/>
    <tripinfo id="9" depart="49.00" departLane="top3D3_0" departPos="5.10" departSpeed="0.00" departDelay="0.00" arrival="364.00" arrivalLane="A0left0_0" arrivalPos="286.40" arrivalSpeed="10.31" duration="315.00" routeLength="2380.45" waitingTime="66.00" waitingCount="5" stopTime="0.00" timeLoss="106.78" rerouteNo="0" devices="tripinfo_9" vType="DEFAULT_VEHTYPE" speedFactor="0.83" vaporized=""/>
    <tripinfo id="37" depart="143.00" departLane="right1D1_0" departPos="5.10" departSpeed="0.00" departDelay="1.00" arrival="369.00" arrivalLane="A2left2_0" arrivalPos="286.40" arrivalSpeed="10.31" duration="226.00" routeLength="1782.72" waitingTime="24.00" waitingCount="4" stopTime="0.00" timeLoss="55.22" rerouteNo="0" devices="tripinfo_37" vType="DEFAULT_VEHTYPE" speedFactor="0.76" vaporized=""/>
    <tripinfo id="10" depart="53.00" departLane="right1D1_0" departPos="5.10" departSpeed="0.00" departDelay="0.00" arrival="380.00" arrivalLane="A3top0_0" arrivalPos="286.40" arrivalSpeed="13.60" duration="327.00" routeLength="2080.28" waitingTime="135.00" waitingCount="5" stopTime="0.00" timeLoss="175.19" rerouteNo="0" devices="tripinfo_10" vType="DEFAULT_VEHTYPE" speedFactor="1.00" vaporized=""/>
    <tripinfo id="26" depart="113.00" departLane="right1D1_0" departPos="5.10" departSpeed="0.00" departDelay="0.00" arrival="380.00" arrivalLane="A3top0_1" arrivalPos="286.40" arrivalSpeed="14.94" duration="267.00" routeLength="2080.28" waitingTime="81.00" waitingCount="4" stopTime="0.00" timeLoss="130.15" rerouteNo="0" devices="tripinfo_26" vType="DEFAULT_VEHTYPE" speedFactor="1.11" vaporized=""/>
    <tripinfo id="57" depart="302.00" departLane="right2D2_0" departPos="5.10" departSpeed="0.00" departDelay="0.00" arrival="387.00" arrivalLane="D3right3_0" arrivalPos="286.40" arrivalSpeed="13.06" duration="85.00" routeLength="858.56" waitingTime="2.00" waitingCount="2" stopTime="0.00" timeLoss="19.49" rerouteNo="0" devices="tripinfo_57" vType="DEFAULT_VEHTYPE" speedFactor="0.97" vaporized=""/>
    <tripinfo id="50" depart="226.00" departLane="right2D2_0" departPos="5.10" departSpeed="0.00" departDelay="0.00" arrival="396.00" arrivalLane="A1left1_1" arrivalPos="286.40" arrivalSpeed="13.47" duration="170.00" routeLength="1782.59" waitingTime="20.00" waitingCount="2" stopTime="0.00" timeLoss="47.01" rerouteNo="0" devices="tripinfo_50" vType="DEFAULT_VEHTYPE" speedFactor="1.06" vaporized=""/>
    <tripinfo id="49" depart="195.00" departLane="top2C3_0" departPos="5.10" departSpeed="0.00" departDelay="0.00" arrival="398.00" arrivalLane="A1left1_0" arrivalPos="286.40" arrivalSpeed="11.67" duration="203.00" routeLength="1780.11" waitingTime="27.00" waitingCount="3" stopTime="0.00" timeLoss="55.97" rerouteNo="0" devices="tripinfo_49" vType="DEFAULT_VEHTYPE" speedFactor="0.88" vaporized=""/>
    <tripinfo id="35" depart="140.00" departLane="right1D1_0" departPos="5.10" departSpeed="0.00" departDelay="0.00" arrival="400.00" arrivalLane="A0bottom0_0" arrivalPos="286.40" arrivalSpeed="12.76" duration="260.00" routeLength="1795.52" waitingTime="95.00" waitingCount="4" stopTime="0.00" timeLoss="129.24" rerouteNo="0" devices="tripinfo_35" vType="DEFAULT_VEHTYPE" speedFactor="1.00" vaporized=""/>
    <tripinfo id="13" depart="61.00" departLane="top0A3_0" departPos="5.10" departSpeed="0.00" departDelay="0.00" arrival="404.00" arrivalLane="D0bottom3_0" arrivalPos="286.40" arrivalSpeed="11.12" duration="343.00" routeLength="2380.22" waitingTime="93.00" waitingCount="5" stopTime="0.00" timeLoss="133.57" rerouteNo="0" devices="tripinfo_13" vType="DEFAULT_VEHTYPE" speedFactor="0.83" vaporized=""/>
    <tripinfo id="60" depart="313.00" departLane="right0D0_0" departPos="5.10" departSpeed="0.00" departDelay="0.00" arrival="408.00" arrivalLane="C0bottom2_0" arrivalPos="286.40" arrivalSpeed="14.31" duration="95.00" routeLength="897.72" waitingTime="17.00" waitingCount="2" stopTime="0.00" timeLoss="34.92" rerouteNo="0" devices="tripinfo_60" vType="DEFAULT_VEHTYPE" speedFactor="1.10" vaporized=""/>
    <tripinfo id="61" depart="317.00" departLane="bottom0A0_0" departPos="5.10" departSpeed="0.00" departDelay="0.00" arrival="416.00" arrivalLane="A1left1_0" arrivalPos="286.40" arrivalSpeed="15.44" duration="99.00" routeLength="897.72" waitingTime="24.00" waitingCount="2" stopTime="0.00" timeLoss="41.90" rerouteNo="0" devices="tripinfo_61" vType="DEFAULT_VEHTYPE" speedFactor="1.14" vaporized=""/>
    <tripinfo id="53" depart="234.00" departLane="bottom3D0_0" departPos="5.10" departSpeed="0.00" departDelay="0.00" arrival="421.00" arrivalLane="A0bottom0_0" arrivalPos="286.40" arrivalSpeed="14.17" duration="187.00" routeLength="1497.83" waitingTime="66.00" waitingCount="2" stopTime="0.00" timeLoss="83.79" rerouteNo="0" devices="tripinfo_53" vType="DEFAULT_VEHTYPE" speedFactor="1.06" vaporized=""/>
    <tripinfo id="34" depart="130.00" departLane="left1A1_0" departPos="5.10" departSpeed="0.00" departDelay="0.00" arrival="429.00" arrivalLane="D3right3_0" arrivalPos="286.40" arrivalSpeed="13.17" duration="299.00" routeLength="2080.05" waitingTime="120.00" waitingCount="4" stopTime="0.00" timeLoss="152.88" rerouteNo="0" devices="tripinfo_34" vType="DEFAULT_VEHTYPE" speedFactor="1.03" vaporized=""/>
    <tripinfo id="51" depart="228.00" departLane="top0A3_0" departPos="5.10" departSpeed="0.00" departDelay="0.00" arrival="432.00" arrivalLane="B0bottom1_0" arrivalPos="286.40" arrivalSpeed="10.77" duration="204.00" routeLength="1782.59" waitingTime="22.00" waitingCount="2" stopTime="0.00" timeLoss="47.72" rerouteNo="0" devices="tripinfo_51" vType="DEFAULT_VEHTYPE" speedFactor="0.83" vaporized=""/>
    <tripinfo id="56" depart="289.00" departLane="right1D1_0" departPos="5.10" departSpeed="0.00" departDelay="0.00" arrival="456.00" arrivalLane="C3top2_0" arrivalPos="286.40" arrivalSpeed="15.20" duration="167.00" routeLength="1479.94" waitingTime="54.00" waitingCount="2" stopTime="0.00" timeLoss="75.57" rerouteNo="0" devices="tripinfo_56" vType="DEFAULT_VEHTYPE" speedFactor="1.18" vaporized=""/>
    <tripinfo id="59" depart="308.00" departLane="right1D1_0" departPos="5.10" departSpeed="0.00" departDelay="0.00" arrival="467.00" arrivalLane="D3top3_0" arrivalPos="286.40" arrivalSpeed="14.62" duration="159.00" routeLength="1179.77" waitingTime="59.00" waitingCount="2" stopTime="0.00" timeLoss="82.80" rerouteNo="0" devices="tripinfo_59" vType="DEFAULT_VEHTYPE" speedFactor="1.13" vaporized=""/>
    <tripinfo id="68" depart="352.00" departLane="top0A3_0" departPos="5.10" departSpeed="0.00" departDelay="0.00" arrival="468.00" arrivalLane="B3top1_0" arrivalPos="286.40" arrivalSpeed="15.27" duration="116.00" routeLength="894.86" waitingTime="40.00" waitingCount="2" stopTime="0.00" timeLoss="57.22" rerouteNo="0" devices="tripinfo_68" vType="DEFAULT_VEHTYPE" speedFactor="1.13" vaporized=""/>
    <tripinfo id="69" depart="365.00" departLane="right1D1_0" departPos="5.10" departSpeed="0.00" departDelay="0.00" arrival="469.00" arrivalLane="D3top3_0" arrivalPos="286.40" arrivalSpeed="14.67" duration="104.00" routeLength="1179.77" waitingTime="12.00" waitingCount="1" stopTime="0.00" timeLoss="28.00" rerouteNo="0" devices="tripinfo_69" vType="DEFAULT_VEHTYPE" speedFactor="1.13" vaporized=""/>
    <tripinfo id="85" depart="444.00" departLane="right0D0_0" departPos="5.10" departSpeed="0.00" departDelay="0.00" arrival="501.00" arrivalLane="D0bottom3_0" arrivalPos="286.40" arrivalSpeed="12.38" duration="57.00" routeLength="597.55" waitingTime="0.00" waitingCount="0" stopTime="0.00" timeLoss="11.00" rerouteNo="0" devices="tripinfo_85" vType="DEFAULT_VEHTYPE" speedFactor="0.96" vaporized=""/>
    <tripinfo id="78" depart="407.00" departLane="right3D3_0" departPos="5.10" departSpeed="0.00" departDelay="0.00" arrival="503.00" arrivalLane="C3top2_0" arrivalPos="286.40" arrivalSpeed="15.53" duration="96.00" routeLength="876.90" waitingTime="22.00" waitingCount="2" stopTime="0.00" timeLoss="40.04" rerouteNo="0" devices="tripinfo_78" vType="DEFAULT_VEHTYPE" speedFactor="1.15" vaporized=""/>
    <tripinfo id="72" depart="395.00" departLane="top2C3_0" departPos="5.10" departSpeed="0.00" departDelay="0.00" arrival="519.00" arrivalLane="D3top3_0" arrivalPos="286.40" arrivalSpeed="13.81" duration="124.00" routeLength="894.86" waitingTime="43.00" waitingCount="1" stopTime="0.00" timeLoss="60.57" rerouteNo="0" devices="tripinfo_72" vType="DEFAULT_VEHTYPE" speedFactor="1.04" vaporized=""/>
    <tripinfo id="58" depart="304.00" departLane="bottom3D0_0" departPos="5.10" departSpeed="0.00" departDelay="0.00" arrival="542.00" arrivalLane="A0bottom0_0" arrivalPos="286.40" arrivalSpeed="11.52" duration="238.00" routeLength="1497.83" waitingTime="89.00" waitingCount="3" stopTime="0.00" timeLoss="114.66" rerouteNo="0" devices="tripinfo_58" vType="DEFAULT_VEHTYPE" speedFactor="0.88" vaporized=""/>
    <tripinfo id="41" depart="150.00" departLane="bottom0A0_0" departPos="5.10" departSpeed="0.00" departDelay="0.00" arrival="559.00" arrivalLane="B3top1_0" arrivalPos="286.40" arrivalSpeed="14.01" duration="409.00" routeLength="1782.72" waitingTime="246.00" waitingCount="5" stopTime="0.00" timeLoss="285.47" rerouteNo="0" devices="tripinfo_41" vType="DEFAULT_VEHTYPE" speedFactor="1.05" vaporized=""/>
    <tripinfo id="66" depart="344.00" departLane="right2D2_0" departPos="5.10" departSpeed="0.00" departDelay="0.00" arrival="559.00" arrivalLane="D2right2_0" arrivalPos="286.40" arrivalSpeed="13.57" duration="215.00" routeLength="1748.75" waitingTime="59.00" waitingCount="3" stopTime="0.00" timeLoss="89.45" rerouteNo="0" devices="tripinfo_66" vType="DEFAULT_VEHTYPE" speedFactor="1.02" vaporized=""/>
    <tripinfo id="75" depart="401.00" departLane="left3A3_0" departPos="5.10" departSpeed="0.00" departDelay="0.00" arrival="563.00" arrivalLane="D3right3_0" arrivalPos="286.40" arrivalSpeed="11.23" duration="162.00" routeLength="1495.58" waitingTime="16.00" waitingCount="2" stopTime="0.00" timeLoss="36.80" rerouteNo="0" devices="tripinfo_75" vType="DEFAULT_VEHTYPE" speedFactor="0.86" vaporized=""/>
    <tripinfo id="82" depart="422.00" departLane="bottom0A0_0" departPos="5.10" departSpeed="0.00" departDelay="0.00" arrival="567.00" arrivalLane="A2left2_0" arrivalPos="286.40" arrivalSpeed="15.02" duration="145.00" routeLength="1197.89" waitingTime="50.00" waitingCount="2" stopTime="0.00" timeLoss="69.69" rerouteNo="0" devices="tripinfo_82" vType="DEFAULT_VEHTYPE" speedFactor="1.16" vaporized=""/>
    <tripinfo id="65" depart="339.00" departLane="top2C3_0" departPos="5.10" departSpeed="0.00" departDelay="0.00" arrival="571.00" arrivalLane="A0bottom0_0" arrivalPos="286.40" arrivalSpeed="14.09" duration="232.00" routeLength="2082.76" waitingTime="63.00" waitingCount="2" stopTime="0.00" timeLoss="87.40" rerouteNo="0" devices="tripinfo_65" vType="DEFAULT_VEHTYPE" speedFactor="1.05" vaporized=""/>
    <tripinfo id="74" depart="399.00" departLane="left1A1_0" departPos="5.10" departSpeed="0.00" departDelay="0.00" arrival="582.00" arrivalLane="A3left3_0" arrivalPos="286.40" arrivalSpeed="11.41" duration="183.00" routeLength="1197.66" waitingTime="61.00" waitingCount="3" stopTime="0.00" timeLoss="83.93" rerouteNo="0" devices="tripinfo_74" vType="DEFAULT_VEHTYPE" speedFactor="0.88" vaporized=""/>