<?xml version="1.0" encoding="UTF-8"?>

<!-- generated on 12/19/21 16:43:40 by Eclipse SUMO sumo Version 1.7.0
<configuration xmlns:xsi="http://www.w3.org/2001/XMLSchema-instance" xsi:noNamespaceSchemaLocation="http://sumo.dlr.de/xsd/sumoConfiguration.xsd">

    <input>
        <net-file value="C:\Users\longs\Desktop\RESCO-main\environments\grid4x4\grid4x4.net.xml"/>
        <route-files value="C:\Users\longs\Desktop\RESCO-main\environments\grid4x4\grid4x4_69.rou.xml"/>
    </input>

    <output>
        <tripinfo-output value="C:\Users\longs\Desktop\RESCO-main\logs\IDQN-tr1-grid4x4-0-drqlong-delaydiff_pressure05\tripinfo_69.xml"/>
        <tripinfo-output.write-unfinished value="true"/>
    </output>

    <processing>
        <time-to-teleport value="-1"/>
    </processing>

    <report>
        <no-warnings value="true"/>
        <no-step-log value="true"/>
    </report>

    <traci_server>
        <remote-port value="55229"/>
    </traci_server>

    <random_number>
        <random value="true"/>
    </random_number>

</configuration>
-->

<tripinfos xmlns:xsi="http://www.w3.org/2001/XMLSchema-instance" xsi:noNamespaceSchemaLocation="http://sumo.dlr.de/xsd/tripinfo_file.xsd">
    <tripinfo id="2" depart="13.00" departLane="top1B3_0" departPos="5.10" departSpeed="0.00" departDelay="0.00" arrival="96.00" arrivalLane="C3top2_0" arrivalPos="286.40" arrivalSpeed="15.94" duration="83.00" routeLength="894.86" waitingTime="9.00" waitingCount="2" stopTime="0.00" timeLoss="28.59" rerouteNo="0" devices="tripinfo_2" vType="DEFAULT_VEHTYPE" speedFactor="1.21" vaporized=""/>
    <tripinfo id="5" depart="18.00" departLane="top1B3_0" departPos="5.10" departSpeed="0.00" departDelay="0.00" arrival="97.00" arrivalLane="A2left2_0" arrivalPos="286.40" arrivalSpeed="16.85" duration="79.00" routeLength="1179.77" waitingTime="0.00" waitingCount="0" stopTime="0.00" timeLoss="8.92" rerouteNo="0" devices="tripinfo_5" vType="DEFAULT_VEHTYPE" speedFactor="1.22" vaporized=""/>
    <tripinfo id="1" depart="8.00" departLane="bottom0A0_0" departPos="5.10" departSpeed="0.00" departDelay="0.00" arrival="120.00" arrivalLane="A2left2_0" arrivalPos="286.40" arrivalSpeed="13.36" duration="112.00" routeLength="1197.89" waitingTime="9.00" waitingCount="1" stopTime="0.00" timeLoss="22.17" rerouteNo="0" devices="tripinfo_1" vType="DEFAULT_VEHTYPE" speedFactor="0.97" vaporized=""/>
    <tripinfo id="8" depart="35.00" departLane="top2C3_0" departPos="5.10" departSpeed="0.00" departDelay="0.00" arrival="158.00" arrivalLane="A3left3_0" arrivalPos="286.40" arrivalSpeed="13.60" duration="123.00" routeLength="1179.77" waitingTime="19.00" waitingCount="2" stopTime="0.00" timeLoss="42.00" rerouteNo="0" devices="tripinfo_8" vType="DEFAULT_VEHTYPE" speedFactor="1.06" vaporized=""/>
    <tripinfo id="7" depart="33.00" departLane="right0D0_0" departPos="5.10" departSpeed="0.00" departDelay="0.00" arrival="167.00" arrivalLane="B0bottom1_0" arrivalPos="286.40" arrivalSpeed="15.10" duration="134.00" routeLength="1197.89" waitingTime="31.00" waitingCount="3" stopTime="0.00" timeLoss="58.29" rerouteNo="0" devices="tripinfo_7" vType="DEFAULT_VEHTYPE" speedFactor="1.16" vaporized=""/>
    <tripinfo id="0" depart="3.00" departLane="bottom1B0_0" departPos="5.10" departSpeed="0.00" departDelay="0.00" arrival="177.00" arrivalLane="C3top2_0" arrivalPos="286.40" arrivalSpeed="13.56" duration="174.00" routeLength="1782.72" waitingTime="24.00" waitingCount="2" stopTime="0.00" timeLoss="47.53" rerouteNo="0" devices="tripinfo_0" vType="DEFAULT_VEHTYPE" speedFactor="1.03" vaporized=""/>
    <tripinfo id="4" depart="15.00" departLane="left2A2_0" departPos="5.10" departSpeed="0.00" departDelay="0.00" arrival="189.00" arrivalLane="D1right1_0" arrivalPos="286.40" arrivalSpeed="13.21" duration="174.00" routeLength="1782.72" waitingTime="16.00" waitingCount="2" stopTime="0.00" timeLoss="43.26" rerouteNo="0" devices="tripinfo_4" vType="DEFAULT_VEHTYPE" speedFactor="0.99" vaporized=""/>
    <tripinfo id="14" depart="59.00" departLane="bottom1B0_0" departPos="5.10" departSpeed="0.00" departDelay="0.00" arrival="190.00" arrivalLane="D1right1_1" arrivalPos="286.40" arrivalSpeed="14.25" duration="131.00" routeLength="1479.94" waitingTime="9.00" waitingCount="2" stopTime="0.00" timeLoss="30.41" rerouteNo="0" devices="tripinfo_14" vType="DEFAULT_VEHTYPE" speedFactor="1.07" vaporized=""/>
    <tripinfo id="15" depart="66.00" departLane="bottom1B0_0" departPos="5.10" departSpeed="0.00" departDelay="0.00" arrival="195.00" arrivalLane="D0bottom3_0" arrivalPos="286.40" arrivalSpeed="11.85" duration="129.00" routeLength="1161.43" waitingTime="11.00" waitingCount="2" stopTime="0.00" timeLoss="30.82" rerouteNo="0" devices="tripinfo_15" vType="DEFAULT_VEHTYPE" speedFactor="0.87" vaporized=""/>
    <tripinfo id="19" depart="81.00" departLane="top2C3_0" departPos="5.10" departSpeed="0.00" departDelay="0.00" arrival="200.00" arrivalLane="A3top0_0" arrivalPos="286.40" arrivalSpeed="11.65" duration="119.00" routeLength="1161.43" waitingTime="6.00" waitingCount="2" stopTime="0.00" timeLoss="25.27" rerouteNo="0" devices="tripinfo_19" vType="DEFAULT_VEHTYPE" speedFactor="0.91" vaporized=""/>
    <tripinfo id="20" depart="101.00" departLane="top2C3_0" departPos="5.10" departSpeed="0.00" departDelay="0.00" arrival="209.00" arrivalLane="D3top3_0" arrivalPos="286.40" arrivalSpeed="13.73" duration="108.00" routeLength="894.86" waitingTime="26.00" waitingCount="2" stopTime="0.00" timeLoss="44.04" rerouteNo="0" devices="tripinfo_20" vType="DEFAULT_VEHTYPE" speedFactor="1.03" vaporized=""/>
    <tripinfo id="24" depart="129.00" departLane="right2D2_0" departPos="5.10" departSpeed="0.00" departDelay="0.00" arrival="221.00" arrivalLane="D1right1_0" arrivalPos="286.40" arrivalSpeed="11.64" duration="92.00" routeLength="894.86" waitingTime="5.00" waitingCount="1" stopTime="0.00" timeLoss="20.18" rerouteNo="0" devices="tripinfo_24" vType="DEFAULT_VEHTYPE" speedFactor="0.91" vaporized=""/>
    <tripinfo id="9" depart="37.00" departLane="bottom0A0_0" departPos="5.10" departSpeed="0.00" departDelay="0.00" arrival="223.00" arrivalLane="D0right0_0" arrivalPos="286.40" arrivalSpeed="10.89" duration="186.00" routeLength="1479.94" waitingTime="37.00" waitingCount="3" stopTime="0.00" timeLoss="62.54" rerouteNo="0" devices="tripinfo_9" vType="DEFAULT_VEHTYPE" speedFactor="0.87" vaporized=""/>
    <tripinfo id="13" depart="56.00" departLane="bottom2C0_0" departPos="5.10" departSpeed="0.00" departDelay="0.00" arrival="223.00" arrivalLane="A2left2_0" arrivalPos="286.40" arrivalSpeed="13.16" duration="167.00" routeLength="1795.52" waitingTime="19.00" waitingCount="2" stopTime="0.00" timeLoss="39.18" rerouteNo="0" devices="tripinfo_13" vType="DEFAULT_VEHTYPE" speedFactor="1.02" vaporized=""/>
    <tripinfo id="12" depart="50.00" departLane="left3A3_0" departPos="5.10" departSpeed="0.00" departDelay="0.00" arrival="226.00" arrivalLane="C0bottom2_0" arrivalPos="286.40" arrivalSpeed="15.29" duration="176.00" routeLength="2080.28" waitingTime="15.00" waitingCount="3" stopTime="0.00" timeLoss="43.07" rerouteNo="0" devices="tripinfo_12" vType="DEFAULT_VEHTYPE" speedFactor="1.13" vaporized=""/>
    <tripinfo id="22" depart="105.00" departLane="bottom1B0_0" departPos="5.10" departSpeed="0.00" departDelay="0.00" arrival="233.00" arrivalLane="A2left2_0" arrivalPos="286.40" arrivalSpeed="13.41" duration="128.00" routeLength="1495.35" waitingTime="9.00" waitingCount="1" stopTime="0.00" timeLoss="23.21" rerouteNo="0" devices="tripinfo_22" vType="DEFAULT_VEHTYPE" speedFactor="1.04" vaporized=""/>
    <tripinfo id="28" depart="141.00" departLane="left3A3_0" departPos="5.10" departSpeed="0.00" departDelay="0.00" arrival="237.00" arrivalLane="B3top1_0" arrivalPos="286.40" arrivalSpeed="11.61" duration="96.00" routeLength="897.72" waitingTime="13.00" waitingCount="1" stopTime="0.00" timeLoss="24.00" rerouteNo="0" devices="tripinfo_28" vType="DEFAULT_VEHTYPE" speedFactor="0.91" vaporized=""/>
    <tripinfo id="6" depart="19.00" departLane="right3D3_0" departPos="5.10" departSpeed="0.00" departDelay="0.00" arrival="239.00" arrivalLane="A1left1_0" arrivalPos="286.40" arrivalSpeed="13.56" duration="220.00" routeLength="2080.05" waitingTime="33.00" waitingCount="4" stopTime="0.00" timeLoss="72.78" rerouteNo="0" devices="tripinfo_6" vType="DEFAULT_VEHTYPE" speedFactor="1.03" vaporized=""/>
    <tripinfo id="10" depart="42.00" departLane="top3D3_0" departPos="5.10" departSpeed="0.00" departDelay="0.00" arrival="240.00" arrivalLane="A1left1_1" arrivalPos="286.40" arrivalSpeed="13.38" duration="198.00" routeLength="2080.28" waitingTime="24.00" waitingCount="3" stopTime="0.00" timeLoss="54.72" rerouteNo="0" devices="tripinfo_10" vType="DEFAULT_VEHTYPE" speedFactor="1.05" vaporized=""/>
    <tripinfo id="17" depart="76.00" departLane="bottom1B0_0" departPos="5.10" departSpeed="0.00" departDelay="0.00" arrival="251.00" arrivalLane="B3top1_0" arrivalPos="286.40" arrivalSpeed="13.17" duration="175.00" routeLength="1495.58" waitingTime="33.00" waitingCount="3" stopTime="0.00" timeLoss="61.06" rerouteNo="0" devices="tripinfo_17" vType="DEFAULT_VEHTYPE" speedFactor="0.95" vaporized=""/>
    <tripinfo id="16" depart="67.00" departLane="top3D3_0" departPos="5.10" departSpeed="0.00" departDelay="0.00" arrival="259.00" arrivalLane="A1left1_0" arrivalPos="286.40" arrivalSpeed="14.30" duration="192.00" routeLength="2080.28" waitingTime="20.00" waitingCount="2" stopTime="0.00" timeLoss="53.14" rerouteNo="0" devices="tripinfo_16" vType="DEFAULT_VEHTYPE" speedFactor="1.09" vaporized=""/>
    <tripinfo id="29" depart="144.00" departLane="bottom2C0_0" departPos="5.10" departSpeed="0.00" departDelay="0.00" arrival="261.00" arrivalLane="A1left1_0" arrivalPos="286.40" arrivalSpeed="13.75" duration="117.00" routeLength="1495.35" waitingTime="2.00" waitingCount="1" stopTime="0.00" timeLoss="16.60" rerouteNo="0" devices="tripinfo_29" vType="DEFAULT_VEHTYPE" speedFactor="1.08" vaporized=""/>
    <tripinfo id="41" depart="199.00" departLane="left3A3_0" departPos="5.10" departSpeed="0.00" departDelay="0.00" arrival="273.00" arrivalLane="A2left2_0" arrivalPos="286.40" arrivalSpeed="15.49" duration="74.00" routeLength="858.56" waitingTime="2.00" waitingCount="2" stopTime="0.00" timeLoss="20.25" rerouteNo="0" devices="tripinfo_41" vType="DEFAULT_VEHTYPE" speedFactor="1.18" vaporized=""/>
    <tripinfo id="3" depart="14.00" departLane="left1A1_0" departPos="5.10" departSpeed="0.00" departDelay="0.00" arrival="283.00" arrivalLane="D3top3_0" arrivalPos="286.40" arrivalSpeed="11.52" duration="269.00" routeLength="2095.69" waitingTime="58.00" waitingCount="4" stopTime="0.00" timeLoss="90.77" rerouteNo="0" devices="tripinfo_3" vType="DEFAULT_VEHTYPE" speedFactor="0.85" vaporized=""/>
    <tripinfo id="45" depart="206.00" departLane="bottom1B0_0" departPos="5.10" departSpeed="0.00" departDelay="0.00" arrival="288.00" arrivalLane="C0bottom2_0" arrivalPos="286.40" arrivalSpeed="12.80" duration="82.00" routeLength="858.56" waitingTime="1.00" waitingCount="1" stopTime="0.00" timeLoss="14.62" rerouteNo="0" devices="tripinfo_45" vType="DEFAULT_VEHTYPE" speedFactor="0.93" vaporized=""/>
    <tripinfo id="33" depart="161.00" departLane="bottom2C0_0" departPos="5.10" departSpeed="0.00" departDelay="0.00" arrival="291.00" arrivalLane="D1right1_0" arrivalPos="286.40" arrivalSpeed="12.19" duration="130.00" routeLength="1179.77" waitingTime="22.00" waitingCount="1" stopTime="0.00" timeLoss="36.68" rerouteNo="0" devices="tripinfo_33" vType="DEFAULT_VEHTYPE" speedFactor="0.92" vaporized=""/>
    <tripinfo id="30" depart="152.00" departLane="left2A2_0" departPos="5.10" departSpeed="0.00" departDelay="0.00" arrival="293.00" arrivalLane="D2right2_0" arrivalPos="286.40" arrivalSpeed="14.05" duration="141.00" routeLength="1495.58" waitingTime="13.00" waitingCount="2" stopTime="0.00" timeLoss="35.44" rerouteNo="0" devices="tripinfo_30" vType="DEFAULT_VEHTYPE" speedFactor="1.02" vaporized=""/>
    <tripinfo id="48" depart="219.00" departLane="right0D0_0" departPos="5.10" departSpeed="0.00" departDelay="0.00" arrival="298.00" arrivalLane="D1right1_0" arrivalPos="286.40" arrivalSpeed="13.80" duration="79.00" routeLength="858.56" waitingTime="2.00" waitingCount="2" stopTime="0.00" timeLoss="16.32" rerouteNo="0" devices="tripinfo_48" vType="DEFAULT_VEHTYPE" speedFactor="1.01" vaporized=""/>
    <tripinfo id="11" depart="47.00" departLane="bottom3D0_0" departPos="5.10" departSpeed="0.00" departDelay="0.00" arrival="307.00" arrivalLane="A3top0_0" arrivalPos="286.40" arrivalSpeed="14.63" duration="260.00" routeLength="2380.22" waitingTime="56.00" waitingCount="6" stopTime="0.00" timeLoss="104.93" rerouteNo="0" devices="tripinfo_11" vType="DEFAULT_VEHTYPE" speedFactor="1.12" vaporized=""/>
    <tripinfo id="32" depart="156.00" departLane="top1B3_0" departPos="5.10" departSpeed="0.00" departDelay="0.00" arrival="307.00" arrivalLane="B3top1_0" arrivalPos="286.40" arrivalSpeed="14.26" duration="151.00" routeLength="1748.75" waitingTime="12.00" waitingCount="2" stopTime="0.00" timeLoss="34.59" rerouteNo="0" devices="tripinfo_32" vType="DEFAULT_VEHTYPE" speedFactor="1.10" vaporized=""/>
    <tripinfo id="38" depart="186.00" departLane="left2A2_0" departPos="5.10" departSpeed="0.00" departDelay="0.00" arrival="308.00" arrivalLane="B0bottom1_0" arrivalPos="286.40" arrivalSpeed="14.61" duration="122.00" routeLength="1479.94" waitingTime="4.00" waitingCount="1" stopTime="0.00" timeLoss="20.17" rerouteNo="0" devices="tripinfo_38" vType="DEFAULT_VEHTYPE" speedFactor="1.05" vaporized=""/>
    <tripinfo id="21" depart="105.00" departLane="right2D2_0" departPos="5.10" departSpeed="0.00" departDelay="0.00" arrival="312.00" arrivalLane="A1left1_0" arrivalPos="286.40" arrivalSpeed="12.04" duration="207.00" routeLength="1782.59" waitingTime="31.00" waitingCount="3" stopTime="0.00" timeLoss="60.05" rerouteNo="0" devices="tripinfo_21" vType="DEFAULT_VEHTYPE" speedFactor="0.88" vaporized=""/>
    <tripinfo id="25" depart="130.00" departLane="top1B3_0" departPos="5.10" departSpeed="0.00" departDelay="0.00" arrival="321.00" arrivalLane="D1right1_0" arrivalPos="286.40" arrivalSpeed="12.22" duration="191.00" routeLength="1795.52" waitingTime="27.00" waitingCount="3" stopTime="0.00" timeLoss="54.74" rerouteNo="0" devices="tripinfo_25" vType="DEFAULT_VEHTYPE" speedFactor="0.96" vaporized=""/>
    <tripinfo id="23" depart="113.00" departLane="right3D3_0" departPos="5.10" departSpeed="0.00" departDelay="0.00" arrival="349.00" arrivalLane="A0bottom0_0" arrivalPos="286.40" arrivalSpeed="14.12" duration="236.00" routeLength="2395.86" waitingTime="41.00" waitingCount="4" stopTime="0.00" timeLoss="75.83" rerouteNo="0" devices="tripinfo_23" vType="DEFAULT_VEHTYPE" speedFactor="1.08" vaporized=""/>
    <tripinfo id="52" depart="244.00" departLane="right3D3_0" departPos="5.10" departSpeed="0.00" departDelay="0.00" arrival="349.00" arrivalLane="D2right2_0" arrivalPos="286.40" arrivalSpeed="14.16" duration="105.00" routeLength="894.86" waitingTime="23.00" waitingCount="2" stopTime="0.00" timeLoss="41.38" rerouteNo="0" devices="tripinfo_52" vType="DEFAULT_VEHTYPE" speedFactor="1.04" vaporized=""/>
    <tripinfo id="18" depart="77.00" departLane="right0D0_0" departPos="5.10" departSpeed="0.00" departDelay="0.00" arrival="350.00" arrivalLane="A3top0_0" arrivalPos="286.40" arrivalSpeed="13.38" duration="273.00" routeLength="2380.45" waitingTime="54.00" waitingCount="5" stopTime="0.00" timeLoss="95.23" rerouteNo="0" devices="tripinfo_18" vType="DEFAULT_VEHTYPE" speedFactor="0.97" vaporized=""/>
    <tripinfo id="36" depart="174.00" departLane="bottom3D0_0" departPos="5.10" departSpeed="0.00" departDelay="0.00" arrival="350.00" arrivalLane="D3right3_0" arrivalPos="286.40" arrivalSpeed="12.82" duration="176.00" routeLength="1477.24" waitingTime="29.00" waitingCount="4" stopTime="0.00" timeLoss="60.89" rerouteNo="0" devices="tripinfo_36" vType="DEFAULT_VEHTYPE" speedFactor="0.93" vaporized=""/>
    <tripinfo id="51" depart="243.00" departLane="bottom3D0_0" departPos="5.10" departSpeed="0.00" departDelay="0.00" arrival="356.00" arrivalLane="B0bottom1_0" arrivalPos="286.40" arrivalSpeed="15.46" duration="113.00" routeLength="1197.66" waitingTime="14.00" waitingCount="3" stopTime="0.00" timeLoss="38.61" rerouteNo="0" devices="tripinfo_51" vType="DEFAULT_VEHTYPE" speedFactor="1.18" vaporized=""/>
    <tripinfo id="26" depart="136.00" departLane="left2A2_0" departPos="5.10" departSpeed="0.00" departDelay="0.00" arrival="359.00" arrivalLane="D0bottom3_0" arrivalPos="286.40" arrivalSpeed="12.92" duration="223.00" routeLength="2080.28" waitingTime="36.00" waitingCount="5" stopTime="0.00" timeLoss="73.20" rerouteNo="0" devices="tripinfo_26" vType="DEFAULT_VEHTYPE" speedFactor="1.00" vaporized=""/>
    <tripinfo id="27" depart="139.00" departLane="right0D0_0" departPos="5.10" departSpeed="0.00" departDelay="0.00" arrival="360.00" arrivalLane="A2left2_0" arrivalPos="286.40" arrivalSpeed="12.75" duration="221.00" routeLength="2082.76" waitingTime="24.00" waitingCount="4" stopTime="0.00" timeLoss="62.19" rerouteNo="0" devices="tripinfo_27" vType="DEFAULT_VEHTYPE" speedFactor="0.95" vaporized=""/>
    <tripinfo id="37" depart="186.00" departLane="bottom3D0_0" departPos="5.10" departSpeed="0.00" departDelay="0.00" arrival="360.00" arrivalLane="A0left0_0" arrivalPos="286.40" arrivalSpeed="11.84" duration="174.00" routeLength="1495.35" waitingTime="31.00" waitingCount="4" stopTime="0.00" timeLoss="58.43" rerouteNo="0" devices="tripinfo_37" vType="DEFAULT_VEHTYPE" speedFactor="0.94" vaporized=""/>
    <tripinfo id="31" depart="152.00" departLane="bottom2C0_0" departPos="5.10" departSpeed="0.00" departDelay="0.00" arrival="361.00" arrivalLane="D3top3_0" arrivalPos="286.40" arrivalSpeed="12.69" duration="209.00" routeLength="1782.72" waitingTime="41.00" waitingCount="4" stopTime="0.00" timeLoss="68.38" rerouteNo="0" devices="tripinfo_31" vType="DEFAULT_VEHTYPE" speedFactor="0.92" vaporized=""/>
    <tripinfo id="60" depart="276.00" departLane="left1A1_0" departPos="5.10" departSpeed="0.00" departDelay="0.00" arrival="367.00" arrivalLane="A0left0_0" arrivalPos="286.40" arrivalSpeed="11.89" duration="91.00" routeLength="858.56" waitingTime="2.00" waitingCount="2" stopTime="0.00" timeLoss="18.84" rerouteNo="0" devices="tripinfo_60" vType="DEFAULT_VEHTYPE" speedFactor="0.88" vaporized=""/>
    <tripinfo id="47" depart="216.00" departLane="left1A1_0" departPos="5.10" departSpeed="0.00" departDelay="0.00" arrival="370.00" arrivalLane="B3top1_0" arrivalPos="286.40" arrivalSpeed="13.24" duration="154.00" routeLength="1495.35" waitingTime="25.00" waitingCount="3" stopTime="0.00" timeLoss="48.26" rerouteNo="0" devices="tripinfo_47" vType="DEFAULT_VEHTYPE" speedFactor="1.03" vaporized=""/>
    <tripinfo id="56" depart="263.00" departLane="right3D3_0" departPos="5.10" departSpeed="0.00" departDelay="0.00" arrival="373.00" arrivalLane="D2right2_0" arrivalPos="286.40" arrivalSpeed="11.66" duration="110.00" routeLength="894.86" waitingTime="18.00" waitingCount="2" stopTime="0.00" timeLoss="33.00" rerouteNo="0" devices="tripinfo_56" vType="DEFAULT_VEHTYPE" speedFactor="0.86" vaporized=""/>
    <tripinfo id="64" depart="288.00" departLane="left1A1_0" departPos="5.10" departSpeed="0.00" departDelay="0.00" arrival="378.00" arrivalLane="A2left2_0" arrivalPos="286.40" arrivalSpeed="14.64" duration="90.00" routeLength="894.86" waitingTime="14.00" waitingCount="2" stopTime="0.00" timeLoss="29.11" rerouteNo="0" devices="tripinfo_64" vType="DEFAULT_VEHTYPE" speedFactor="1.08" vaporized=""/>
    <tripinfo id="58" depart="272.00" departLane="right1D1_0" departPos="5.10" departSpeed="0.00" departDelay="0.00" arrival="379.00" arrivalLane="D3top3_0" arrivalPos="286.40" arrivalSpeed="13.89" duration="107.00" routeLength="1179.77" waitingTime="9.00" waitingCount="1" stopTime="0.00" timeLoss="21.81" rerouteNo="0" devices="tripinfo_58" vType="DEFAULT_VEHTYPE" speedFactor="1.01" vaporized=""/>
    <tripinfo id="35" depart="170.00" departLane="right3D3_0" departPos="5.10" departSpeed="0.00" departDelay="0.00" arrival="380.00" arrivalLane="A0left0_0" arrivalPos="286.40" arrivalSpeed="13.64" duration="210.00" routeLength="2380.22" waitingTime="15.00" waitingCount="2" stopTime="0.00" timeLoss="45.32" rerouteNo="0" devices="tripinfo_35" vType="DEFAULT_VEHTYPE" speedFactor="1.05" vaporized=""/>
    <tripinfo id="61" depart="281.00" departLane="right1D1_0" departPos="5.10" departSpeed="0.00" departDelay="0.00" arrival="388.00" arrivalLane="D0right0_0" arrivalPos="286.40" arrivalSpeed="13.36" duration="107.00" routeLength="894.86" waitingTime="26.00" waitingCount="2" stopTime="0.00" timeLoss="44.42" rerouteNo="0" devices="tripinfo_61" vType="DEFAULT_VEHTYPE" speedFactor="1.05" vaporized=""/>
    <tripinfo id="67" depart="306.00" departLane="top1B3_0" departPos="5.10" departSpeed="0.00" departDelay="0.00" arrival="389.00" arrivalLane="A3top0_0" arrivalPos="286.40" arrivalSpeed="11.75" duration="83.00" routeLength="858.56" waitingTime="1.00" waitingCount="1" stopTime="0.00" timeLoss="14.24" rerouteNo="0" devices="tripinfo_67" vType="DEFAULT_VEHTYPE" speedFactor="0.93" vaporized=""/>
    <tripinfo id="42" depart="200.00" departLane="left1A1_0" departPos="5.10" departSpeed="0.00" departDelay="0.00" arrival="390.00" arrivalLane="D1right1_0" arrivalPos="286.40" arrivalSpeed="12.47" duration="190.00" routeLength="1495.58" waitingTime="45.00" waitingCount="4" stopTime="0.00" timeLoss="78.32" rerouteNo="0" devices="tripinfo_42" vType="DEFAULT_VEHTYPE" speedFactor="0.96" vaporized=""/>
    <tripinfo id="44" depart="205.00" departLane="top3D3_0" departPos="5.10" departSpeed="0.00" departDelay="0.00" arrival="391.00" arrivalLane="C0bottom2_0" arrivalPos="286.40" arrivalSpeed="11.28" duration="186.00" routeLength="1782.72" waitingTime="11.00" waitingCount="1" stopTime="0.00" timeLoss="29.57" rerouteNo="0" devices="tripinfo_44" vType="DEFAULT_VEHTYPE" speedFactor="0.83" vaporized=""/>
    <tripinfo id="34" depart="161.00" departLane="bottom0A0_0" departPos="5.10" departSpeed="0.00" departDelay="0.00" arrival="397.00" arrivalLane="D1right1_0" arrivalPos="286.40" arrivalSpeed="10.85" duration="236.00" routeLength="1780.11" waitingTime="43.00" waitingCount="5" stopTime="0.00" timeLoss="76.47" rerouteNo="0" devices="tripinfo_34" vType="DEFAULT_VEHTYPE" speedFactor="0.81" vaporized=""/>
    <tripinfo id="49" depart="234.00" departLane="left0A0_0" departPos="5.10" departSpeed="0.00" departDelay="0.00" arrival="399.00" arrivalLane="D0right0_0" arrivalPos="286.40" arrivalSpeed="12.71" duration="165.00" routeLength="1495.58" waitingTime="30.00" waitingCount="3" stopTime="0.00" timeLoss="55.23" rerouteNo="0" devices="tripinfo_49" vType="DEFAULT_VEHTYPE" speedFactor="0.98" vaporized=""/>
    <tripinfo id="68" depart="309.00" departLane="bottom0A0_0" departPos="5.10" departSpeed="0.00" departDelay="0.00" arrival="409.00" arrivalLane="A1left1_0" arrivalPos="286.40" arrivalSpeed="14.27" duration="100.00" routeLength="897.72" waitingTime="21.00" waitingCount="2" stopTime="0.00" timeLoss="37.60" rerouteNo="0" devices="tripinfo_68" vType="DEFAULT_VEHTYPE" speedFactor="1.05" vaporized=""/>
    <tripinfo id="66" depart="297.00" departLane="top3D3_0" departPos="5.10" departSpeed="0.00" departDelay="0.00" arrival="410.00" arrivalLane="B3top1_0" arrivalPos="286.40" arrivalSpeed="12.92" duration="113.00" routeLength="1161.43" waitingTime="6.00" waitingCount="3" stopTime="0.00" timeLoss="26.95" rerouteNo="0" devices="tripinfo_66" vType="DEFAULT_VEHTYPE" speedFactor="0.99" vaporized=""/>
    <tripinfo id="43" depart="204.00" departLane="left1A1_0" departPos="5.10" departSpeed="0.00" departDelay="0.00" arrival="417.00" arrivalLane="C3top2_0" arrivalPos="286.40" arrivalSpeed="15.30" duration="213.00" routeLength="1795.52" waitingTime="54.00" waitingCount="5" stopTime="0.00" timeLoss="98.10" rerouteNo="0" devices="tripinfo_43" vType="DEFAULT_VEHTYPE" speedFactor="1.14" vaporized=""/>
    <tripinfo id="55" depart="260.00" departLane="right3D3_0" departPos="5.10" departSpeed="0.00" departDelay="0.00" arrival="417.00" arrivalLane="A1left1_0" arrivalPos="286.40" arrivalSpeed="14.56" duration="157.00" routeLength="2080.05" waitingTime="3.00" waitingCount="1" stopTime="0.00" timeLoss="20.76" rerouteNo="0" devices="tripinfo_55" vType="DEFAULT_VEHTYPE" speedFactor="1.11" vaporized=""/>
    <tripinfo id="40" depart="188.00" departLane="top1B3_0" departPos="5.10" departSpeed="0.00" departDelay="0.00" arrival="426.00" arrivalLane="D0bottom3_0" arrivalPos="286.40" arrivalSpeed="11.94" duration="238.00" routeLength="2080.05" waitingTime="38.00" waitingCount="4" stopTime="0.00" timeLoss="73.95" rerouteNo="0" devices="tripinfo_40" vType="DEFAULT_VEHTYPE" speedFactor="0.92" vaporized=""/>
    <tripinfo id="50" depart="243.00" departLane="right1D1_0" departPos="5.10" departSpeed="0.00" departDelay="0.00" arrival="427.00" arrivalLane="B3top1_0" arrivalPos="286.40" arrivalSpeed="14.55" duration="184.00" routeLength="1780.11" waitingTime="38.00" waitingCount="3" stopTime="0.00" timeLoss="64.45" rerouteNo="0" devices="tripinfo_50" vType="DEFAULT_VEHTYPE" speedFactor="1.08" vaporized=""/>
    <tripinfo id="59" depart="275.00" departLane="left2A2_0" departPos="5.10" departSpeed="0.00" departDelay="0.00" arrival="427.00" arrivalLane="D1right1_0" arrivalPos="286.40" arrivalSpeed="15.16" duration="152.00" routeLength="1782.72" waitingTime="17.00" waitingCount="2" stopTime="0.00" timeLoss="39.60" rerouteNo="0" devices="tripinfo_59" vType="DEFAULT_VEHTYPE" speedFactor="1.16" vaporized=""/>
    <tripinfo id="73" depart="332.00" departLane="bottom3D0_0" departPos="5.10" departSpeed="0.00" departDelay="0.00" arrival="428.00" arrivalLane="C0bottom2_0" arrivalPos="286.40" arrivalSpeed="14.65" duration="96.00" routeLength="894.86" waitingTime="17.00" waitingCount="2" stopTime="0.00" timeLoss="36.08" rerouteNo="0" devices="tripinfo_73" vType="DEFAULT_VEHTYPE" speedFactor="1.10" vaporized=""/>
    <tripinfo id="62" depart="282.00" departLane="left0A0_0" departPos="5.10" departSpeed="0.00" departDelay="0.00" arrival="431.00" arrivalLane="A0left0_0" arrivalPos="286.40" arrivalSpeed="14.64" duration="149.00" routeLength="1745.91" waitingTime="7.00" waitingCount="3" stopTime="0.00" timeLoss="34.05" rerouteNo="0" devices="tripinfo_62" vType="DEFAULT_VEHTYPE" speedFactor="1.11" vaporized=""/>
    <tripinfo id="46" depart="207.00" departLane="top0A3_0" departPos="5.10" departSpeed="0.00" departDelay="0.00" arrival="434.00" arrivalLane="D0bottom3_0" arrivalPos="286.40" arrivalSpeed="12.50" duration="227.00" routeLength="2380.22" waitingTime="19.00" waitingCount="2" stopTime="0.00" timeLoss="41.93" rerouteNo="0" devices="tripinfo_46" vType="DEFAULT_VEHTYPE" speedFactor="0.93" vaporized=""/>
    <tripinfo id="39" depart="188.00" departLane="top3D3_0" departPos="5.10" departSpeed="0.00" departDelay="0.00" arrival="439.00" arrivalLane="A0bottom0_0" arrivalPos="286.40" arrivalSpeed="14.28" duration="251.00" routeLength="2382.93" waitingTime="47.00" waitingCount="4" stopTime="0.00" timeLoss="84.93" rerouteNo="0" devices="tripinfo_39" vType="DEFAULT_VEHTYPE" speedFactor="1.04" vaporized=""/>
    <tripinfo id="53" depart="258.00" departLane="left2A2_0" departPos="5.10" departSpeed="0.00" departDelay="0.00" arrival="439.00" arrivalLane="C0bottom2_0" arrivalPos="286.40" arrivalSpeed="13.23" duration="181.00" routeLength="1780.11" waitingTime="17.00" waitingCount="4" stopTime="0.00" timeLoss="49.99" rerouteNo="0" devices="tripinfo_53" vType="DEFAULT_VEHTYPE" speedFactor="0.98" vaporized=""/>
    <tripinfo id="69" depart="318.00" departLane="right3D3_0" departPos="5.10" departSpeed="0.00" departDelay="0.00" arrival="457.00" arrivalLane="B3top1_0" arrivalPos="286.40" arrivalSpeed="13.10" duration="139.00" routeLength="1177.07" waitingTime="29.00" waitingCount="3" stopTime="0.00" timeLoss="51.81" rerouteNo="0" devices="tripinfo_69" vType="DEFAULT_VEHTYPE" speedFactor="0.99" vaporized=""/>
    <tripinfo id="75" depart="347.00" departLane="right1D1_0" departPos="5.10" departSpeed="0.00" departDelay="0.00" arrival="458.00" arrivalLane="C0bottom2_0" arrivalPos="286.40" arrivalSpeed="13.48" duration="111.00" routeLength="1195.18" waitingTime="10.00" waitingCount="2" stopTime="0.00" timeLoss="29.08" rerouteNo="0" devices="tripinfo_75" vType="DEFAULT_VEHTYPE" speedFactor="1.06" vaporized=""/>
    <tripinfo id="65" depart="296.00" departLane="right3D3_0" departPos="5.10" departSpeed="0.00" departDelay="0.00" arrival="459.00" arrivalLane="C0bottom2_1" arrivalPos="286.40" arrivalSpeed="14.69" duration="163.00" routeLength="1795.52" waitingTime="12.00" waitingCount="4" stopTime="0.00" timeLoss="46.48" rerouteNo="0" devices="tripinfo_65" vType="DEFAULT_VEHTYPE" speedFactor="1.12" vaporized=""/>
    <tripinfo id="63" depart="287.00" departLane="top0A3_0" departPos="5.10" departSpeed="0.00" departDelay="0.00" arrival="462.00" arrivalLane="C0bottom2_0" arrivalPos="286.40" arrivalSpeed="13.22" duration="175.00" routeLength="2080.05" waitingTime="2.00" waitingCount="1" stopTime="0.00" timeLoss="28.30" rerouteNo="0" devices="tripinfo_63" vType="DEFAULT_VEHTYPE" speedFactor="1.03" vaporized=""/>
    <tripinfo id="86" depart="392.00" departLane="top3D3_0" departPos="5.10" departSpeed="0.00" departDelay="0.00" arrival="462.00" arrivalLane="C3top2_0" arrivalPos="286.40" arrivalSpeed="13.68" duration="70.00" routeLength="858.56" waitingTime="0.00" waitingCount="0" stopTime="0.00" timeLoss="8.76" rerouteNo="0" devices="tripinfo_86" vType="DEFAULT_VEHTYPE" speedFactor="1.05" vaporized=""/>