<?xml version="1.0" encoding="UTF-8"?>

<!-- generated on 12/19/21 15:39:19 by Eclipse SUMO sumo Version 1.7.0
<configuration xmlns:xsi="http://www.w3.org/2001/XMLSchema-instance" xsi:noNamespaceSchemaLocation="http://sumo.dlr.de/xsd/sumoConfiguration.xsd">

    <input>
        <net-file value="C:\Users\longs\Desktop\RESCO-main\environments\grid4x4\grid4x4.net.xml"/>
        <route-files value="C:\Users\longs\Desktop\RESCO-main\environments\grid4x4\grid4x4_1.rou.xml"/>
    </input>

    <output>
        <tripinfo-output value="C:\Users\longs\Desktop\RESCO-main\logs\IDQN-tr1-grid4x4-0-drqlong-delaydiff_pressure05\tripinfo_1.xml"/>
        <tripinfo-output.write-unfinished value="true"/>
    </output>

    <processing>
        <time-to-teleport value="-1"/>
    </processing>

    <report>
        <no-warnings value="true"/>
        <no-step-log value="true"/>
    </report>

    <traci_server>
        <remote-port value="53163"/>
    </traci_server>

    <random_number>
        <random value="true"/>
    </random_number>

</configuration>
-->

<tripinfos xmlns:xsi="http://www.w3.org/2001/XMLSchema-instance" xsi:noNamespaceSchemaLocation="http://sumo.dlr.de/xsd/tripinfo_file.xsd">
    <tripinfo id="2" depart="14.00" departLane="left0A0_0" departPos="5.10" departSpeed="0.00" departDelay="0.00" arrival="140.00" arrivalLane="B0bottom1_0" arrivalPos="286.40" arrivalSpeed="11.96" duration="126.00" routeLength="876.90" waitingTime="39.00" waitingCount="1" stopTime="0.00" timeLoss="53.04" rerouteNo="0" devices="tripinfo_2" vType="DEFAULT_VEHTYPE" speedFactor="0.88" vaporized=""/>
    <tripinfo id="8" depart="57.00" departLane="top2C3_0" departPos="5.10" departSpeed="0.00" departDelay="0.00" arrival="150.00" arrivalLane="D3top3_0" arrivalPos="286.40" arrivalSpeed="12.69" duration="93.00" routeLength="894.86" waitingTime="13.00" waitingCount="1" stopTime="0.00" timeLoss="23.01" rerouteNo="0" devices="tripinfo_8" vType="DEFAULT_VEHTYPE" speedFactor="0.94" vaporized=""/>
    <tripinfo id="6" depart="39.00" departLane="bottom1B0_0" departPos="5.10" departSpeed="0.00" departDelay="1.00" arrival="163.00" arrivalLane="A0left0_0" arrivalPos="286.40" arrivalSpeed="11.31" duration="124.00" routeLength="895.01" waitingTime="34.00" waitingCount="2" stopTime="0.00" timeLoss="46.96" rerouteNo="0" devices="tripinfo_6" vType="DEFAULT_VEHTYPE" speedFactor="0.85" vaporized=""/>
    <tripinfo id="25" depart="111.00" departLane="right3D3_0" departPos="5.10" departSpeed="0.00" departDelay="0.00" arrival="166.00" arrivalLane="D3top3_0" arrivalPos="286.40" arrivalSpeed="12.42" duration="55.00" routeLength="576.73" waitingTime="1.00" waitingCount="1" stopTime="0.00" timeLoss="9.96" rerouteNo="0" devices="tripinfo_25" vType="DEFAULT_VEHTYPE" speedFactor="0.95" vaporized=""/>
    <tripinfo id="0" depart="0.00" departLane="top3D3_0" departPos="5.10" departSpeed="0.00" departDelay="0.00" arrival="192.00" arrivalLane="D3top3_0" arrivalPos="286.40" arrivalSpeed="11.93" duration="192.00" routeLength="1748.75" waitingTime="29.00" waitingCount="3" stopTime="0.00" timeLoss="51.05" rerouteNo="0" devices="tripinfo_0" vType="DEFAULT_VEHTYPE" speedFactor="0.91" vaporized=""/>
    <tripinfo id="7" depart="53.00" departLane="top1B3_0" departPos="5.10" departSpeed="0.00" departDelay="0.00" arrival="192.00" arrivalLane="D3top3_1" arrivalPos="286.40" arrivalSpeed="12.38" duration="139.00" routeLength="1197.66" waitingTime="29.00" waitingCount="3" stopTime="0.00" timeLoss="49.93" rerouteNo="0" devices="tripinfo_7" vType="DEFAULT_VEHTYPE" speedFactor="0.98" vaporized=""/>
    <tripinfo id="24" depart="110.00" departLane="bottom2C0_0" departPos="5.10" departSpeed="0.00" departDelay="0.00" arrival="199.00" arrivalLane="B0bottom1_0" arrivalPos="286.40" arrivalSpeed="13.62" duration="89.00" routeLength="894.86" waitingTime="11.00" waitingCount="1" stopTime="0.00" timeLoss="23.19" rerouteNo="0" devices="tripinfo_24" vType="DEFAULT_VEHTYPE" speedFactor="1.00" vaporized=""/>
    <tripinfo id="22" depart="104.00" departLane="top1B3_0" departPos="5.10" departSpeed="0.00" departDelay="0.00" arrival="203.00" arrivalLane="D3top3_0" arrivalPos="286.40" arrivalSpeed="14.07" duration="99.00" routeLength="1197.66" waitingTime="1.00" waitingCount="1" stopTime="0.00" timeLoss="14.47" rerouteNo="0" devices="tripinfo_22" vType="DEFAULT_VEHTYPE" speedFactor="1.03" vaporized=""/>
    <tripinfo id="4" depart="34.00" departLane="left2A2_0" departPos="5.10" departSpeed="0.00" departDelay="0.00" arrival="220.00" arrivalLane="A2left2_0" arrivalPos="286.40" arrivalSpeed="13.50" duration="186.00" routeLength="1748.75" waitingTime="28.00" waitingCount="5" stopTime="0.00" timeLoss="55.71" rerouteNo="0" devices="tripinfo_4" vType="DEFAULT_VEHTYPE" speedFactor="0.99" vaporized=""/>
    <tripinfo id="1" depart="9.00" departLane="left0A0_0" departPos="5.10" departSpeed="0.00" departDelay="0.00" arrival="229.00" arrivalLane="A3top0_0" arrivalPos="286.40" arrivalSpeed="13.11" duration="220.00" routeLength="1495.35" waitingTime="94.00" waitingCount="2" stopTime="0.00" timeLoss="112.37" rerouteNo="0" devices="tripinfo_1" vType="DEFAULT_VEHTYPE" speedFactor="1.01" vaporized=""/>
    <tripinfo id="10" depart="62.00" departLane="bottom2C0_0" departPos="5.10" departSpeed="0.00" departDelay="0.00" arrival="230.00" arrivalLane="D2right2_0" arrivalPos="286.40" arrivalSpeed="12.85" duration="168.00" routeLength="1479.94" waitingTime="35.00" waitingCount="2" stopTime="0.00" timeLoss="53.20" rerouteNo="0" devices="tripinfo_10" vType="DEFAULT_VEHTYPE" speedFactor="0.93" vaporized=""/>
    <tripinfo id="14" depart="77.00" departLane="right0D0_0" departPos="5.10" departSpeed="0.00" departDelay="0.00" arrival="236.00" arrivalLane="D2right2_0" arrivalPos="286.40" arrivalSpeed="13.64" duration="159.00" routeLength="1161.43" waitingTime="56.00" waitingCount="2" stopTime="0.00" timeLoss="75.59" rerouteNo="0" devices="tripinfo_14" vType="DEFAULT_VEHTYPE" speedFactor="1.02" vaporized=""/>
    <tripinfo id="13" depart="76.00" departLane="right1D1_0" departPos="5.10" departSpeed="0.00" departDelay="0.00" arrival="241.00" arrivalLane="D3top3_0" arrivalPos="286.40" arrivalSpeed="11.81" duration="165.00" routeLength="1179.77" waitingTime="53.00" waitingCount="2" stopTime="0.00" timeLoss="70.43" rerouteNo="0" devices="tripinfo_13" vType="DEFAULT_VEHTYPE" speedFactor="0.91" vaporized=""/>
    <tripinfo id="43" depart="186.00" departLane="top0A3_0" departPos="5.10" departSpeed="0.00" departDelay="0.00" arrival="246.00" arrivalLane="A3left3_0" arrivalPos="286.40" arrivalSpeed="11.34" duration="60.00" routeLength="576.73" waitingTime="1.00" waitingCount="1" stopTime="0.00" timeLoss="12.02" rerouteNo="0" devices="tripinfo_43" vType="DEFAULT_VEHTYPE" speedFactor="0.89" vaporized=""/>
    <tripinfo id="16" depart="84.00" departLane="left2A2_0" departPos="5.10" departSpeed="0.00" departDelay="0.00" arrival="247.00" arrivalLane="B3top1_0" arrivalPos="286.40" arrivalSpeed="14.32" duration="163.00" routeLength="1195.18" waitingTime="59.00" waitingCount="3" stopTime="0.00" timeLoss="84.24" rerouteNo="0" devices="tripinfo_16" vType="DEFAULT_VEHTYPE" speedFactor="1.11" vaporized=""/>
    <tripinfo id="23" depart="106.00" departLane="bottom2C0_0" departPos="5.10" departSpeed="0.00" departDelay="0.00" arrival="257.00" arrivalLane="D1right1_0" arrivalPos="286.40" arrivalSpeed="15.19" duration="151.00" routeLength="1179.77" waitingTime="50.00" waitingCount="3" stopTime="0.00" timeLoss="74.67" rerouteNo="0" devices="tripinfo_23" vType="DEFAULT_VEHTYPE" speedFactor="1.13" vaporized=""/>
    <tripinfo id="32" depart="139.00" departLane="top2C3_0" departPos="5.10" departSpeed="0.00" departDelay="0.00" arrival="258.00" arrivalLane="D3right3_0" arrivalPos="286.40" arrivalSpeed="13.00" duration="119.00" routeLength="895.01" waitingTime="38.00" waitingCount="2" stopTime="0.00" timeLoss="54.82" rerouteNo="0" devices="tripinfo_32" vType="DEFAULT_VEHTYPE" speedFactor="1.01" vaporized=""/>
    <tripinfo id="12" depart="74.00" departLane="top3D3_0" departPos="5.10" departSpeed="0.00" departDelay="0.00" arrival="262.00" arrivalLane="D0right0_0" arrivalPos="286.40" arrivalSpeed="13.63" duration="188.00" routeLength="1498.06" waitingTime="65.00" waitingCount="2" stopTime="0.00" timeLoss="84.41" rerouteNo="0" devices="tripinfo_12" vType="DEFAULT_VEHTYPE" speedFactor="1.05" vaporized=""/>
    <tripinfo id="20" depart="98.00" departLane="bottom2C0_0" departPos="5.10" departSpeed="0.00" departDelay="0.00" arrival="267.00" arrivalLane="D2right2_0" arrivalPos="286.40" arrivalSpeed="13.29" duration="169.00" routeLength="1479.94" waitingTime="35.00" waitingCount="4" stopTime="0.00" timeLoss="66.27" rerouteNo="0" devices="tripinfo_20" vType="DEFAULT_VEHTYPE" speedFactor="1.05" vaporized=""/>
    <tripinfo id="11" depart="70.00" departLane="left1A1_0" departPos="5.10" departSpeed="0.00" departDelay="0.00" arrival="291.00" arrivalLane="A1left1_0" arrivalPos="286.40" arrivalSpeed="12.26" duration="221.00" routeLength="1748.75" waitingTime="48.00" waitingCount="4" stopTime="0.00" timeLoss="76.26" rerouteNo="0" devices="tripinfo_11" vType="DEFAULT_VEHTYPE" speedFactor="0.89" vaporized=""/>
    <tripinfo id="15" depart="79.00" departLane="left0A0_0" departPos="5.10" departSpeed="0.00" departDelay="0.00" arrival="296.00" arrivalLane="D0right0_0" arrivalPos="286.40" arrivalSpeed="15.63" duration="217.00" routeLength="1495.58" waitingTime="98.00" waitingCount="3" stopTime="0.00" timeLoss="124.92" rerouteNo="0" devices="tripinfo_15" vType="DEFAULT_VEHTYPE" speedFactor="1.18" vaporized=""/>
    <tripinfo id="54" depart="236.00" departLane="bottom0A0_0" departPos="5.10" departSpeed="0.00" departDelay="0.00" arrival="313.00" arrivalLane="B0bottom1_0" arrivalPos="286.40" arrivalSpeed="14.26" duration="77.00" routeLength="858.56" waitingTime="2.00" waitingCount="2" stopTime="0.00" timeLoss="17.70" rerouteNo="0" devices="tripinfo_54" vType="DEFAULT_VEHTYPE" speedFactor="1.06" vaporized=""/>
    <tripinfo id="5" depart="36.00" departLane="bottom1B0_0" departPos="5.10" departSpeed="0.00" departDelay="0.00" arrival="318.00" arrivalLane="B3top1_0" arrivalPos="286.40" arrivalSpeed="13.71" duration="282.00" routeLength="1495.58" waitingTime="152.00" waitingCount="4" stopTime="0.00" timeLoss="179.68" rerouteNo="0" devices="tripinfo_5" vType="DEFAULT_VEHTYPE" speedFactor="1.06" vaporized=""/>
    <tripinfo id="28" depart="117.00" departLane="top0A3_0" departPos="5.10" departSpeed="0.00" departDelay="0.00" arrival="320.00" arrivalLane="B0bottom1_0" arrivalPos="286.40" arrivalSpeed="14.13" duration="203.00" routeLength="1782.59" waitingTime="48.00" waitingCount="3" stopTime="0.00" timeLoss="79.59" rerouteNo="0" devices="tripinfo_28" vType="DEFAULT_VEHTYPE" speedFactor="1.05" vaporized=""/>
    <tripinfo id="31" depart="138.00" departLane="left3A3_0" departPos="5.10" departSpeed="0.00" departDelay="0.00" arrival="332.00" arrivalLane="B3top1_0" arrivalPos="286.40" arrivalSpeed="12.04" duration="194.00" routeLength="897.72" waitingTime="106.00" waitingCount="2" stopTime="0.00" timeLoss="121.14" rerouteNo="0" devices="tripinfo_31" vType="DEFAULT_VEHTYPE" speedFactor="0.90" vaporized=""/>
    <tripinfo id="19" depart="90.00" departLane="right2D2_0" departPos="5.10" departSpeed="0.00" departDelay="0.00" arrival="336.00" arrivalLane="C0bottom2_0" arrivalPos="286.40" arrivalSpeed="15.19" duration="246.00" routeLength="1495.35" waitingTime="128.00" waitingCount="3" stopTime="0.00" timeLoss="148.70" rerouteNo="0" devices="tripinfo_19" vType="DEFAULT_VEHTYPE" speedFactor="1.11" vaporized=""/>
    <tripinfo id="9" depart="61.00" departLane="top1B3_0" departPos="5.10" departSpeed="0.00" departDelay="0.00" arrival="339.00" arrivalLane="D0right0_0" arrivalPos="286.40" arrivalSpeed="12.69" duration="278.00" routeLength="2095.69" waitingTime="92.00" waitingCount="4" stopTime="0.00" timeLoss="125.72" rerouteNo="0" devices="tripinfo_9" vType="DEFAULT_VEHTYPE" speedFactor="1.00" vaporized=""/>
    <tripinfo id="17" depart="85.00" departLane="bottom2C0_0" departPos="5.10" departSpeed="0.00" departDelay="0.00" arrival="341.00" arrivalLane="D3right3_0" arrivalPos="286.40" arrivalSpeed="12.79" duration="256.00" routeLength="1780.11" waitingTime="88.00" waitingCount="4" stopTime="0.00" timeLoss="118.32" rerouteNo="0" devices="tripinfo_17" vType="DEFAULT_VEHTYPE" speedFactor="0.94" vaporized=""/>
    <tripinfo id="49" depart="220.00" departLane="top1B3_0" departPos="5.10" departSpeed="0.00" departDelay="0.00" arrival="341.00" arrivalLane="A3left3_0" arrivalPos="286.40" arrivalSpeed="12.66" duration="121.00" routeLength="879.60" waitingTime="37.00" waitingCount="1" stopTime="0.00" timeLoss="52.01" rerouteNo="0" devices="tripinfo_49" vType="DEFAULT_VEHTYPE" speedFactor="0.94" vaporized=""/>
    <tripinfo id="26" depart="111.00" departLane="bottom0A0_0" departPos="5.10" departSpeed="0.00" departDelay="0.00" arrival="342.00" arrivalLane="B3top1_0" arrivalPos="286.40" arrivalSpeed="10.60" duration="231.00" routeLength="1782.72" waitingTime="53.00" waitingCount="3" stopTime="0.00" timeLoss="78.97" rerouteNo="0" devices="tripinfo_26" vType="DEFAULT_VEHTYPE" speedFactor="0.85" vaporized=""/>
    <tripinfo id="29" depart="118.00" departLane="right2D2_0" departPos="5.10" departSpeed="0.00" departDelay="0.00" arrival="342.00" arrivalLane="A3left3_1" arrivalPos="286.40" arrivalSpeed="13.67" duration="224.00" routeLength="1782.72" waitingTime="64.00" waitingCount="4" stopTime="0.00" timeLoss="99.49" rerouteNo="0" devices="tripinfo_29" vType="DEFAULT_VEHTYPE" speedFactor="1.04" vaporized=""/>
    <tripinfo id="38" depart="169.00" departLane="top3D3_0" departPos="5.10" departSpeed="0.00" departDelay="0.00" arrival="342.00" arrivalLane="A3left3_0" arrivalPos="286.40" arrivalSpeed="12.93" duration="173.00" routeLength="1479.94" waitingTime="32.00" waitingCount="4" stopTime="0.00" timeLoss="62.14" rerouteNo="0" devices="tripinfo_38" vType="DEFAULT_VEHTYPE" speedFactor="0.97" vaporized=""/>
    <tripinfo id="27" depart="114.00" departLane="bottom1B0_0" departPos="5.10" departSpeed="0.00" departDelay="0.00" arrival="344.00" arrivalLane="A3left3_0" arrivalPos="286.40" arrivalSpeed="13.61" duration="230.00" routeLength="1795.52" waitingTime="72.00" waitingCount="3" stopTime="0.00" timeLoss="103.33" rerouteNo="0" devices="tripinfo_27" vType="DEFAULT_VEHTYPE" speedFactor="1.03" vaporized=""/>
    <tripinfo id="21" depart="101.00" departLane="top0A3_0" departPos="5.10" departSpeed="0.00" departDelay="0.00" arrival="356.00" arrivalLane="C0bottom2_0" arrivalPos="286.40" arrivalSpeed="10.89" duration="255.00" routeLength="2080.05" waitingTime="39.00" waitingCount="4" stopTime="0.00" timeLoss="70.74" rerouteNo="0" devices="tripinfo_21" vType="DEFAULT_VEHTYPE" speedFactor="0.82" vaporized=""/>
    <tripinfo id="44" depart="197.00" departLane="left1A1_0" departPos="5.10" departSpeed="0.00" departDelay="0.00" arrival="359.00" arrivalLane="A2left2_0" arrivalPos="286.40" arrivalSpeed="13.44" duration="162.00" routeLength="894.86" waitingTime="82.00" waitingCount="2" stopTime="0.00" timeLoss="96.37" rerouteNo="0" devices="tripinfo_44" vType="DEFAULT_VEHTYPE" speedFactor="1.00" vaporized=""/>
    <tripinfo id="51" depart="228.00" departLane="top0A3_0" departPos="5.10" departSpeed="0.00" departDelay="0.00" arrival="359.00" arrivalLane="A1left1_0" arrivalPos="286.40" arrivalSpeed="12.65" duration="131.00" routeLength="1177.07" waitingTime="21.00" waitingCount="2" stopTime="0.00" timeLoss="44.25" rerouteNo="0" devices="tripinfo_51" vType="DEFAULT_VEHTYPE" speedFactor="0.99" vaporized=""/>
    <tripinfo id="45" depart="204.00" departLane="bottom1B0_0" departPos="5.10" departSpeed="0.00" departDelay="0.00" arrival="381.00" arrivalLane="B0bottom1_1" arrivalPos="286.40" arrivalSpeed="13.06" duration="177.00" routeLength="1748.75" waitingTime="17.00" waitingCount="3" stopTime="0.00" timeLoss="51.55" rerouteNo="0" devices="tripinfo_45" vType="DEFAULT_VEHTYPE" speedFactor="1.02" vaporized=""/>
    <tripinfo id="40" depart="175.00" departLane="right0D0_0" departPos="5.10" departSpeed="0.00" departDelay="0.00" arrival="384.00" arrivalLane="B0bottom1_0" arrivalPos="286.40" arrivalSpeed="10.36" duration="209.00" routeLength="1197.89" waitingTime="82.00" waitingCount="3" stopTime="0.00" timeLoss="104.70" rerouteNo="0" devices="tripinfo_40" vType="DEFAULT_VEHTYPE" speedFactor="0.83" vaporized=""/>
    <tripinfo id="60" depart="278.00" departLane="right3D3_0" departPos="5.10" departSpeed="0.00" departDelay="0.00" arrival="384.00" arrivalLane="C3top2_0" arrivalPos="286.40" arrivalSpeed="9.22" duration="106.00" routeLength="876.90" waitingTime="1.00" waitingCount="1" stopTime="0.00" timeLoss="14.51" rerouteNo="0" devices="tripinfo_60" vType="DEFAULT_VEHTYPE" speedFactor="0.70" vaporized=""/>
    <tripinfo id="68" depart="307.00" departLane="bottom2C0_0" departPos="5.10" departSpeed="0.00" departDelay="0.00" arrival="389.00" arrivalLane="D0bottom3_0" arrivalPos="286.40" arrivalSpeed="12.48" duration="82.00" routeLength="858.56" waitingTime="2.00" waitingCount="2" stopTime="0.00" timeLoss="17.53" rerouteNo="0" devices="tripinfo_68" vType="DEFAULT_VEHTYPE" speedFactor="0.98" vaporized=""/>
    <tripinfo id="55" depart="257.00" departLane="left3A3_0" departPos="5.10" departSpeed="0.00" departDelay="0.00" arrival="396.00" arrivalLane="C3top2_0" arrivalPos="286.40" arrivalSpeed="12.56" duration="139.00" routeLength="1197.89" waitingTime="31.00" waitingCount="1" stopTime="0.00" timeLoss="45.61" rerouteNo="0" devices="tripinfo_55" vType="DEFAULT_VEHTYPE" speedFactor="0.93" vaporized=""/>
    <tripinfo id="18" depart="87.00" departLane="left0A0_0" departPos="5.10" departSpeed="0.00" departDelay="0.00" arrival="397.00" arrivalLane="D3right3_0" arrivalPos="286.40" arrivalSpeed="14.90" duration="310.00" routeLength="2380.22" waitingTime="106.00" waitingCount="6" stopTime="0.00" timeLoss="153.85" rerouteNo="0" devices="tripinfo_18" vType="DEFAULT_VEHTYPE" speedFactor="1.11" vaporized=""/>
    <tripinfo id="41" depart="176.00" departLane="right1D1_0" departPos="5.10" departSpeed="0.00" departDelay="0.00" arrival="397.00" arrivalLane="A3left3_0" arrivalPos="286.40" arrivalSpeed="14.36" duration="221.00" routeLength="2082.76" waitingTime="45.00" waitingCount="5" stopTime="0.00" timeLoss="84.81" rerouteNo="0" devices="tripinfo_41" vType="DEFAULT_VEHTYPE" speedFactor="1.11" vaporized=""/>
    <tripinfo id="57" depart="268.00" departLane="bottom3D0_0" departPos="5.10" departSpeed="0.00" departDelay="0.00" arrival="398.00" arrivalLane="C0bottom2_0" arrivalPos="286.40" arrivalSpeed="13.52" duration="130.00" routeLength="894.86" waitingTime="51.00" waitingCount="2" stopTime="0.00" timeLoss="67.71" rerouteNo="0" devices="tripinfo_57" vType="DEFAULT_VEHTYPE" speedFactor="1.05" vaporized=""/>
    <tripinfo id="39" depart="173.00" departLane="top1B3_0" departPos="5.10" departSpeed="0.00" departDelay="0.00" arrival="410.00" arrivalLane="A0left0_0" arrivalPos="286.40" arrivalSpeed="11.60" duration="237.00" routeLength="1780.11" waitingTime="67.00" waitingCount="3" stopTime="0.00" timeLoss="94.84" rerouteNo="0" devices="tripinfo_39" vType="DEFAULT_VEHTYPE" speedFactor="0.91" vaporized=""/>
    <tripinfo id="42" depart="178.00" departLane="left0A0_0" departPos="5.10" departSpeed="0.00" departDelay="0.00" arrival="414.00" arrivalLane="D0bottom3_0" arrivalPos="286.40" arrivalSpeed="10.81" duration="236.00" routeLength="1477.24" waitingTime="76.00" waitingCount="3" stopTime="0.00" timeLoss="102.18" rerouteNo="0" devices="tripinfo_42" vType="DEFAULT_VEHTYPE" speedFactor="0.80" vaporized=""/>
    <tripinfo id="46" depart="211.00" departLane="bottom1B0_0" departPos="5.10" departSpeed="0.00" departDelay="0.00" arrival="419.00" arrivalLane="C3top2_0" arrivalPos="286.40" arrivalSpeed="13.59" duration="208.00" routeLength="1782.72" waitingTime="52.00" waitingCount="3" stopTime="0.00" timeLoss="79.26" rerouteNo="0" devices="tripinfo_46" vType="DEFAULT_VEHTYPE" speedFactor="1.01" vaporized=""/>
    <tripinfo id="35" depart="146.00" departLane="top0A3_0" departPos="5.10" departSpeed="0.00" departDelay="0.00" arrival="425.00" arrivalLane="A0left0_0" arrivalPos="286.40" arrivalSpeed="14.97" duration="279.00" routeLength="1477.24" waitingTime="149.00" waitingCount="4" stopTime="0.00" timeLoss="180.36" rerouteNo="0" devices="tripinfo_35" vType="DEFAULT_VEHTYPE" speedFactor="1.09" vaporized=""/>
    <tripinfo id="66" depart="297.00" departLane="bottom0A0_0" departPos="5.10" departSpeed="0.00" departDelay="0.00" arrival="427.00" arrivalLane="A1left1_0" arrivalPos="286.40" arrivalSpeed="14.17" duration="130.00" routeLength="897.72" waitingTime="51.00" waitingCount="2" stopTime="0.00" timeLoss="70.87" rerouteNo="0" devices="tripinfo_66" vType="DEFAULT_VEHTYPE" speedFactor="1.10" vaporized=""/>
    <tripinfo id="71" depart="324.00" departLane="bottom0A0_0" departPos="5.10" departSpeed="0.00" departDelay="0.00" arrival="430.00" arrivalLane="A1left1_0" arrivalPos="286.40" arrivalSpeed="14.31" duration="106.00" routeLength="897.72" waitingTime="24.00" waitingCount="2" stopTime="0.00" timeLoss="43.16" rerouteNo="0" devices="tripinfo_71" vType="DEFAULT_VEHTYPE" speedFactor="1.04" vaporized=""/>
    <tripinfo id="61" depart="279.00" departLane="top3D3_0" departPos="5.10" departSpeed="0.00" departDelay="0.00" arrival="439.00" arrivalLane="A3left3_0" arrivalPos="286.40" arrivalSpeed="14.19" duration="160.00" routeLength="1479.94" waitingTime="33.00" waitingCount="3" stopTime="0.00" timeLoss="57.06" rerouteNo="0" devices="tripinfo_61" vType="DEFAULT_VEHTYPE" speedFactor="1.05" vaporized=""/>
    <tripinfo id="67" depart="302.00" departLane="top3D3_0" departPos="5.10" departSpeed="0.00" departDelay="0.00" arrival="446.00" arrivalLane="A3left3_0" arrivalPos="286.40" arrivalSpeed="12.26" duration="144.00" routeLength="1479.94" waitingTime="11.00" waitingCount="2" stopTime="0.00" timeLoss="31.39" rerouteNo="0" devices="tripinfo_67" vType="DEFAULT_VEHTYPE" speedFactor="0.95" vaporized=""/>
    <tripinfo id="50" depart="222.00" departLane="top2C3_0" departPos="5.10" departSpeed="0.00" departDelay="0.00" arrival="448.00" arrivalLane="C3top2_0" arrivalPos="286.40" arrivalSpeed="13.99" duration="226.00" routeLength="1748.75" waitingTime="68.00" waitingCount="3" stopTime="0.00" timeLoss="103.50" rerouteNo="0" devices="tripinfo_50" vType="DEFAULT_VEHTYPE" speedFactor="1.05" vaporized=""/>
    <tripinfo id="52" depart="229.00" departLane="right1D1_0" departPos="5.10" departSpeed="0.00" departDelay="0.00" arrival="451.00" arrivalLane="C0bottom2_0" arrivalPos="286.40" arrivalSpeed="12.28" duration="222.00" routeLength="1195.18" waitingTime="106.00" waitingCount="2" stopTime="0.00" timeLoss="124.54" rerouteNo="0" devices="tripinfo_52" vType="DEFAULT_VEHTYPE" speedFactor="0.89" vaporized=""/>
    <tripinfo id="47" depart="212.00" departLane="right3D3_0" departPos="5.10" departSpeed="0.00" departDelay="0.00" arrival="460.00" arrivalLane="B0bottom1_0" arrivalPos="286.40" arrivalSpeed="12.68" duration="248.00" routeLength="2095.69" waitingTime="61.00" waitingCount="4" stopTime="0.00" timeLoss="92.70" rerouteNo="0" devices="tripinfo_47" vType="DEFAULT_VEHTYPE" speedFactor="0.98" vaporized=""/>
    <tripinfo id="80" depart="388.00" departLane="top1B3_0" departPos="5.10" departSpeed="0.00" departDelay="0.00" arrival="482.00" arrivalLane="C3top2_0" arrivalPos="286.40" arrivalSpeed="13.40" duration="94.00" routeLength="894.86" waitingTime="17.00" waitingCount="1" stopTime="0.00" timeLoss="30.35" rerouteNo="0" devices="tripinfo_80" vType="DEFAULT_VEHTYPE" speedFactor="1.04" vaporized=""/>
    <tripinfo id="87" depart="408.00" departLane="bottom1B0_0" departPos="5.10" departSpeed="0.00" departDelay="0.00" arrival="486.00" arrivalLane="C0bottom2_0" arrivalPos="286.40" arrivalSpeed="12.53" duration="78.00" routeLength="858.56" waitingTime="1.00" waitingCount="1" stopTime="0.00" timeLoss="12.57" rerouteNo="0" devices="tripinfo_87" vType="DEFAULT_VEHTYPE" speedFactor="0.96" vaporized=""/>
    <tripinfo id="33" depart="139.00" departLane="left1A1_0" departPos="5.10" departSpeed="0.00" departDelay="0.00" arrival="493.00" arrivalLane="D1right1_0" arrivalPos="286.40" arrivalSpeed="11.24" duration="354.00" routeLength="1495.58" waitingTime="199.00" waitingCount="4" stopTime="0.00" timeLoss="228.97" rerouteNo="0" devices="tripinfo_33" vType="DEFAULT_VEHTYPE" speedFactor="0.87" vaporized=""/>
    <tripinfo id="58" depart="275.00" departLane="bottom3D0_0" departPos="5.10" departSpeed="0.00" departDelay="0.00" arrival="494.00" arrivalLane="B0bottom1_0" arrivalPos="286.40" arrivalSpeed="10.36" duration="219.00" routeLength="1197.66" waitingTime="91.00" waitingCount="2" stopTime="0.00" timeLoss="113.57" rerouteNo="0" devices="tripinfo_58" vType="DEFAULT_VEHTYPE" speedFactor="0.83" vaporized=""/>
    <tripinfo id="56" depart="259.00" departLane="left0A0_0" departPos="5.10" departSpeed="0.00" departDelay="0.00" arrival="500.00" arrivalLane="A3left3_0" arrivalPos="286.40" arrivalSpeed="12.88" duration="241.00" routeLength="1497.83" waitingTime="113.00" waitingCount="2" stopTime="0.00" timeLoss="131.01" rerouteNo="0" devices="tripinfo_56" vType="DEFAULT_VEHTYPE" speedFactor="1.00" vaporized=""/>
    <tripinfo id="59" depart="276.00" departLane="top2C3_0" departPos="5.10" departSpeed="0.00" departDelay="0.00" arrival="505.00" arrivalLane="D3right3_0" arrivalPos="286.40" arrivalSpeed="9.51" duration="229.00" routeLength="895.01" waitingTime="134.00" waitingCount="1" stopTime="0.00" timeLoss="144.94" rerouteNo="0" devices="tripinfo_59" vType="DEFAULT_VEHTYPE" speedFactor="0.77" vaporized=""/>
    <tripinfo id="64" depart="286.00" departLane="left0A0_0" departPos="5.10" departSpeed="0.00" departDelay="0.00" arrival="507.00" arrivalLane="A2left2_0" arrivalPos="286.40" arrivalSpeed="15.20" duration="221.00" routeLength="1197.66" waitingTime="119.00" waitingCount="3" stopTime="0.00" timeLoss="144.58" rerouteNo="0" devices="tripinfo_64" vType="DEFAULT_VEHTYPE" speedFactor="1.15" vaporized=""/>
    <tripinfo id="100" depart="452.00" departLane="top3D3_0" departPos="5.10" departSpeed="0.00" departDelay="0.00" arrival="507.00" arrivalLane="D3right3_1" arrivalPos="286.40" arrivalSpeed="15.51" duration="55.00" routeLength="597.55" waitingTime="5.00" waitingCount="1" stopTime="0.00" timeLoss="15.74" rerouteNo="0" devices="tripinfo_100" vType="DEFAULT_VEHTYPE" speedFactor="1.13" vaporized=""/>
    <tripinfo id="30" depart="137.00" departLane="top0A3_0" departPos="5.10" departSpeed="0.00" departDelay="0.00" arrival="510.00" arrivalLane="C0bottom2_0" arrivalPos="286.40" arrivalSpeed="13.95" duration="373.00" routeLength="2080.05" waitingTime="195.00" waitingCount="4" stopTime="0.00" timeLoss="227.09" rerouteNo="0" devices="tripinfo_30" vType="DEFAULT_VEHTYPE" speedFactor="1.03" vaporized=""/>
    <tripinfo id="90" depart="422.00" departLane="left3A3_0" departPos="5.10" departSpeed="0.00" departDelay="1.00" arrival="510.00" arrivalLane="B3top1_0" arrivalPos="286.40" arrivalSpeed="13.61" duration="88.00" routeLength="897.72" waitingTime="10.00" waitingCount="1" stopTime="0.00" timeLoss="21.15" rerouteNo="0" devices="tripinfo_90" vType="DEFAULT_VEHTYPE" speedFactor="0.99" vaporized=""/>
    <tripinfo id="65" depart="294.00" departLane="left2A2_0" departPos="5.10" departSpeed="0.00" departDelay="0.00" arrival="511.00" arrivalLane="C0bottom2_1" arrivalPos="286.40" arrivalSpeed="14.75" duration="217.00" routeLength="1780.11" waitingTime="70.00" waitingCount="3" stopTime="0.00" timeLoss="99.59" rerouteNo="0" devices="tripinfo_65" vType="DEFAULT_VEHTYPE" speedFactor="1.10" vaporized=""/>
    <tripinfo id="94" depart="430.00" departLane="right0D0_0" departPos="5.10" departSpeed="0.00" departDelay="0.00" arrival="511.00" arrivalLane="D1right1_0" arrivalPos="286.40" arrivalSpeed="12.97" duration="81.00" routeLength="858.56" waitingTime="1.00" waitingCount="1" stopTime="0.00" timeLoss="17.91" rerouteNo="0" devices="tripinfo_94" vType="DEFAULT_VEHTYPE" speedFactor="1.00" vaporized=""/>
    <tripinfo id="70" depart="320.00" departLane="right1D1_0" departPos="5.10" departSpeed="0.00" departDelay="0.00" arrival="517.00" arrivalLane="B3top1_0" arrivalPos="286.40" arrivalSpeed="14.54" duration="197.00" routeLength="1780.11" waitingTime="49.00" waitingCount="3" stopTime="0.00" timeLoss="77.87" rerouteNo="0" devices="tripinfo_70" vType="DEFAULT_VEHTYPE" speedFactor="1.08" vaporized=""/>
    <tripinfo id="73" depart="329.00" departLane="bottom3D0_0" departPos="5.10" departSpeed="0.00" departDelay="0.00" arrival="517.00" arrivalLane="D0bottom3_0" arrivalPos="286.40" arrivalSpeed="10.98" duration="188.00" routeLength="1745.91" waitingTime="7.00" waitingCount="4" stopTime="0.00" timeLoss="35.10" rerouteNo="0" devices="tripinfo_73" vType="DEFAULT_VEHTYPE" speedFactor="0.84" vaporized=""/>
    <tripinfo id="62" depart="283.00" departLane="right3D3_0" departPos="5.10" departSpeed="0.00" departDelay="0.00" arrival="519.00" arrivalLane="D1right1_0" arrivalPos="286.40" arrivalSpeed="12.84" duration="236.00" routeLength="1197.66" waitingTime="128.00" waitingCount="3" stopTime="0.00" timeLoss="149.21" rerouteNo="0" devices="tripinfo_62" vType="DEFAULT_VEHTYPE" speedFactor="1.01" vaporized=""/>
    <tripinfo id="78" depart="379.00" departLane="left0A0_0" departPos="5.10" departSpeed="0.00" departDelay="0.00" arrival="523.00" arrivalLane="A2left2_0" arrivalPos="286.40" arrivalSpeed="12.94" duration="144.00" routeLength="1197.66" waitingTime="39.00" waitingCount="2" stopTime="0.00" timeLoss="56.43" rerouteNo="0" devices="tripinfo_78" vType="DEFAULT_VEHTYPE" speedFactor="1.00" vaporized=""/>