<?xml version="1.0" encoding="UTF-8"?>

<!-- generated on 12/19/21 12:03:45 by Eclipse SUMO sumo Version 1.7.0
<configuration xmlns:xsi="http://www.w3.org/2001/XMLSchema-instance" xsi:noNamespaceSchemaLocation="http://sumo.dlr.de/xsd/sumoConfiguration.xsd">

    <input>
        <net-file value="C:\Users\longs\Desktop\RESCO-main\environments\grid4x4\grid4x4.net.xml"/>
        <route-files value="C:\Users\longs\Desktop\RESCO-main\environments\grid4x4\grid4x4_77.rou.xml"/>
    </input>

    <output>
        <tripinfo-output value="C:\Users\longs\Desktop\RESCO-main\logs\IDQN-tr1-grid4x4-0-drqlong-delaydiff_pressure01\tripinfo_77.xml"/>
        <tripinfo-output.write-unfinished value="true"/>
    </output>

    <processing>
        <time-to-teleport value="-1"/>
    </processing>

    <report>
        <no-warnings value="true"/>
        <no-step-log value="true"/>
    </report>

    <traci_server>
        <remote-port value="65482"/>
    </traci_server>

    <random_number>
        <random value="true"/>
    </random_number>

</configuration>
-->

<tripinfos xmlns:xsi="http://www.w3.org/2001/XMLSchema-instance" xsi:noNamespaceSchemaLocation="http://sumo.dlr.de/xsd/tripinfo_file.xsd">
    <tripinfo id="0" depart="0.00" departLane="top0A3_0" departPos="5.10" departSpeed="0.00" departDelay="0.00" arrival="87.00" arrivalLane="A2left2_0" arrivalPos="286.40" arrivalSpeed="12.34" duration="87.00" routeLength="876.90" waitingTime="4.00" waitingCount="1" stopTime="0.00" timeLoss="17.47" rerouteNo="0" devices="tripinfo_0" vType="DEFAULT_VEHTYPE" speedFactor="0.93" vaporized=""/>
    <tripinfo id="4" depart="25.00" departLane="top2C3_0" departPos="5.10" departSpeed="0.00" departDelay="0.00" arrival="127.00" arrivalLane="D3right3_0" arrivalPos="286.40" arrivalSpeed="14.33" duration="102.00" routeLength="895.01" waitingTime="27.00" waitingCount="2" stopTime="0.00" timeLoss="42.34" rerouteNo="0" devices="tripinfo_4" vType="DEFAULT_VEHTYPE" speedFactor="1.10" vaporized=""/>
    <tripinfo id="6" depart="33.00" departLane="bottom0A0_0" departPos="5.10" departSpeed="0.00" departDelay="0.00" arrival="128.00" arrivalLane="A1left1_0" arrivalPos="286.40" arrivalSpeed="14.30" duration="95.00" routeLength="897.72" waitingTime="16.00" waitingCount="2" stopTime="0.00" timeLoss="33.93" rerouteNo="0" devices="tripinfo_6" vType="DEFAULT_VEHTYPE" speedFactor="1.08" vaporized=""/>
    <tripinfo id="19" depart="65.00" departLane="bottom0A0_0" departPos="5.10" departSpeed="0.00" departDelay="0.00" arrival="137.00" arrivalLane="B0bottom1_0" arrivalPos="286.40" arrivalSpeed="14.12" duration="72.00" routeLength="858.56" waitingTime="1.00" waitingCount="1" stopTime="0.00" timeLoss="13.63" rerouteNo="0" devices="tripinfo_19" vType="DEFAULT_VEHTYPE" speedFactor="1.09" vaporized=""/>
    <tripinfo id="5" depart="29.00" departLane="left3A3_0" departPos="5.10" departSpeed="0.00" departDelay="0.00" arrival="139.00" arrivalLane="C3top2_0" arrivalPos="286.40" arrivalSpeed="13.95" duration="110.00" routeLength="1197.89" waitingTime="15.00" waitingCount="1" stopTime="0.00" timeLoss="27.18" rerouteNo="0" devices="tripinfo_5" vType="DEFAULT_VEHTYPE" speedFactor="1.06" vaporized=""/>
    <tripinfo id="11" depart="50.00" departLane="left2A2_0" departPos="5.10" departSpeed="0.00" departDelay="0.00" arrival="149.00" arrivalLane="A0left0_0" arrivalPos="286.40" arrivalSpeed="15.02" duration="99.00" routeLength="1161.43" waitingTime="2.00" waitingCount="2" stopTime="0.00" timeLoss="20.76" rerouteNo="0" devices="tripinfo_11" vType="DEFAULT_VEHTYPE" speedFactor="1.09" vaporized=""/>
    <tripinfo id="2" depart="12.00" departLane="left0A0_0" departPos="5.10" departSpeed="0.00" departDelay="0.00" arrival="150.00" arrivalLane="A3left3_0" arrivalPos="286.40" arrivalSpeed="13.45" duration="138.00" routeLength="1497.83" waitingTime="13.00" waitingCount="1" stopTime="0.00" timeLoss="25.74" rerouteNo="0" devices="tripinfo_2" vType="DEFAULT_VEHTYPE" speedFactor="0.97" vaporized=""/>
    <tripinfo id="7" depart="36.00" departLane="right2D2_0" departPos="5.10" departSpeed="0.00" departDelay="0.00" arrival="161.00" arrivalLane="D0right0_0" arrivalPos="286.40" arrivalSpeed="12.90" duration="125.00" routeLength="1197.66" waitingTime="16.00" waitingCount="2" stopTime="0.00" timeLoss="31.45" rerouteNo="0" devices="tripinfo_7" vType="DEFAULT_VEHTYPE" speedFactor="0.94" vaporized=""/>
    <tripinfo id="21" depart="82.00" departLane="bottom1B0_0" departPos="5.10" departSpeed="0.00" departDelay="0.00" arrival="166.00" arrivalLane="D0bottom3_0" arrivalPos="286.40" arrivalSpeed="15.67" duration="84.00" routeLength="1161.43" waitingTime="0.00" waitingCount="0" stopTime="0.00" timeLoss="10.45" rerouteNo="0" devices="tripinfo_21" vType="DEFAULT_VEHTYPE" speedFactor="1.17" vaporized=""/>
    <tripinfo id="16" depart="61.00" departLane="bottom1B0_0" departPos="5.10" departSpeed="0.00" departDelay="0.00" arrival="173.00" arrivalLane="A0left0_0" arrivalPos="286.40" arrivalSpeed="11.41" duration="112.00" routeLength="895.01" waitingTime="22.00" waitingCount="2" stopTime="0.00" timeLoss="36.96" rerouteNo="0" devices="tripinfo_16" vType="DEFAULT_VEHTYPE" speedFactor="0.88" vaporized=""/>
    <tripinfo id="1" depart="11.00" departLane="top0A3_0" departPos="5.10" departSpeed="0.00" departDelay="0.00" arrival="202.00" arrivalLane="D0right0_0" arrivalPos="286.40" arrivalSpeed="14.45" duration="191.00" routeLength="2395.86" waitingTime="8.00" waitingCount="1" stopTime="0.00" timeLoss="27.03" rerouteNo="0" devices="tripinfo_1" vType="DEFAULT_VEHTYPE" speedFactor="1.06" vaporized=""/>
    <tripinfo id="8" depart="38.00" departLane="top0A3_0" departPos="5.10" departSpeed="0.00" departDelay="0.00" arrival="206.00" arrivalLane="B0bottom1_0" arrivalPos="286.40" arrivalSpeed="15.09" duration="168.00" routeLength="1782.59" waitingTime="21.00" waitingCount="4" stopTime="0.00" timeLoss="54.43" rerouteNo="0" devices="tripinfo_8" vType="DEFAULT_VEHTYPE" speedFactor="1.14" vaporized=""/>
    <tripinfo id="3" depart="17.00" departLane="top1B3_0" departPos="5.10" departSpeed="0.00" departDelay="0.00" arrival="207.00" arrivalLane="C0bottom2_0" arrivalPos="286.40" arrivalSpeed="14.42" duration="190.00" routeLength="1782.59" waitingTime="41.00" waitingCount="4" stopTime="0.00" timeLoss="73.30" rerouteNo="0" devices="tripinfo_3" vType="DEFAULT_VEHTYPE" speedFactor="1.12" vaporized=""/>
    <tripinfo id="12" depart="52.00" departLane="top1B3_0" departPos="5.10" departSpeed="0.00" departDelay="0.00" arrival="211.00" arrivalLane="B3top1_0" arrivalPos="286.40" arrivalSpeed="13.25" duration="159.00" routeLength="1748.75" waitingTime="6.00" waitingCount="2" stopTime="0.00" timeLoss="32.08" rerouteNo="0" devices="tripinfo_12" vType="DEFAULT_VEHTYPE" speedFactor="1.01" vaporized=""/>
    <tripinfo id="13" depart="59.00" departLane="right3D3_0" departPos="5.10" departSpeed="0.00" departDelay="0.00" arrival="218.00" arrivalLane="D3right3_0" arrivalPos="286.40" arrivalSpeed="13.96" duration="159.00" routeLength="1745.91" waitingTime="14.00" waitingCount="3" stopTime="0.00" timeLoss="41.60" rerouteNo="0" devices="tripinfo_13" vType="DEFAULT_VEHTYPE" speedFactor="1.09" vaporized=""/>
    <tripinfo id="26" depart="129.00" departLane="bottom1B0_0" departPos="5.10" departSpeed="0.00" departDelay="0.00" arrival="218.00" arrivalLane="A0bottom0_0" arrivalPos="286.40" arrivalSpeed="14.46" duration="89.00" routeLength="894.86" waitingTime="11.00" waitingCount="2" stopTime="0.00" timeLoss="27.61" rerouteNo="0" devices="tripinfo_26" vType="DEFAULT_VEHTYPE" speedFactor="1.08" vaporized=""/>
    <tripinfo id="18" depart="64.00" departLane="bottom1B0_0" departPos="5.10" departSpeed="0.00" departDelay="0.00" arrival="221.00" arrivalLane="D1right1_0" arrivalPos="286.40" arrivalSpeed="12.70" duration="157.00" routeLength="1479.94" waitingTime="18.00" waitingCount="2" stopTime="0.00" timeLoss="40.83" rerouteNo="0" devices="tripinfo_18" vType="DEFAULT_VEHTYPE" speedFactor="0.93" vaporized=""/>
    <tripinfo id="10" depart="47.00" departLane="right3D3_0" departPos="5.10" departSpeed="0.00" departDelay="0.00" arrival="227.00" arrivalLane="C0bottom2_0" arrivalPos="286.40" arrivalSpeed="15.05" duration="180.00" routeLength="1795.52" waitingTime="33.00" waitingCount="4" stopTime="0.00" timeLoss="66.14" rerouteNo="0" devices="tripinfo_10" vType="DEFAULT_VEHTYPE" speedFactor="1.15" vaporized=""/>
    <tripinfo id="29" depart="146.00" departLane="top1B3_0" departPos="5.10" departSpeed="0.00" departDelay="0.00" arrival="227.00" arrivalLane="A3top0_0" arrivalPos="286.40" arrivalSpeed="12.67" duration="81.00" routeLength="858.56" waitingTime="1.00" waitingCount="1" stopTime="0.00" timeLoss="12.68" rerouteNo="0" devices="tripinfo_29" vType="DEFAULT_VEHTYPE" speedFactor="0.94" vaporized=""/>
    <tripinfo id="25" depart="122.00" departLane="top0A3_0" departPos="5.10" departSpeed="0.00" departDelay="0.00" arrival="240.00" arrivalLane="A1left1_0" arrivalPos="286.40" arrivalSpeed="12.41" duration="118.00" routeLength="1177.07" waitingTime="12.00" waitingCount="1" stopTime="0.00" timeLoss="26.01" rerouteNo="0" devices="tripinfo_25" vType="DEFAULT_VEHTYPE" speedFactor="0.93" vaporized=""/>
    <tripinfo id="15" depart="60.00" departLane="right0D0_0" departPos="5.10" departSpeed="0.00" departDelay="0.00" arrival="243.00" arrivalLane="D0right0_0" arrivalPos="286.40" arrivalSpeed="11.35" duration="183.00" routeLength="1748.75" waitingTime="9.00" waitingCount="2" stopTime="0.00" timeLoss="31.76" rerouteNo="0" devices="tripinfo_15" vType="DEFAULT_VEHTYPE" speedFactor="0.85" vaporized=""/>
    <tripinfo id="34" depart="166.00" departLane="left1A1_0" departPos="5.10" departSpeed="0.00" departDelay="0.00" arrival="247.00" arrivalLane="A0bottom0_0" arrivalPos="286.40" arrivalSpeed="14.55" duration="81.00" routeLength="879.60" waitingTime="5.00" waitingCount="2" stopTime="0.00" timeLoss="23.78" rerouteNo="0" devices="tripinfo_34" vType="DEFAULT_VEHTYPE" speedFactor="1.12" vaporized=""/>
    <tripinfo id="23" depart="95.00" departLane="top3D3_0" departPos="5.10" departSpeed="0.00" departDelay="0.00" arrival="260.00" arrivalLane="D3top3_0" arrivalPos="286.40" arrivalSpeed="12.43" duration="165.00" routeLength="1748.75" waitingTime="8.00" waitingCount="3" stopTime="0.00" timeLoss="32.68" rerouteNo="0" devices="tripinfo_23" vType="DEFAULT_VEHTYPE" speedFactor="0.97" vaporized=""/>
    <tripinfo id="27" depart="140.00" departLane="right2D2_0" departPos="5.10" departSpeed="0.00" departDelay="0.00" arrival="260.00" arrivalLane="B3top1_0" arrivalPos="286.40" arrivalSpeed="13.47" duration="120.00" routeLength="1479.94" waitingTime="0.00" waitingCount="0" stopTime="0.00" timeLoss="11.21" rerouteNo="0" devices="tripinfo_27" vType="DEFAULT_VEHTYPE" speedFactor="0.99" vaporized=""/>
    <tripinfo id="30" depart="150.00" departLane="right1D1_0" departPos="5.10" departSpeed="0.00" departDelay="0.00" arrival="265.00" arrivalLane="D3right3_0" arrivalPos="286.40" arrivalSpeed="14.13" duration="115.00" routeLength="1161.43" waitingTime="11.00" waitingCount="3" stopTime="0.00" timeLoss="31.35" rerouteNo="0" devices="tripinfo_30" vType="DEFAULT_VEHTYPE" speedFactor="1.02" vaporized=""/>
    <tripinfo id="24" depart="101.00" departLane="top3D3_0" departPos="5.10" departSpeed="0.00" departDelay="0.00" arrival="278.00" arrivalLane="A2left2_0" arrivalPos="286.40" arrivalSpeed="14.38" duration="177.00" routeLength="1780.11" waitingTime="20.00" waitingCount="3" stopTime="0.00" timeLoss="52.89" rerouteNo="0" devices="tripinfo_24" vType="DEFAULT_VEHTYPE" speedFactor="1.04" vaporized=""/>
    <tripinfo id="28" depart="144.00" departLane="left0A0_0" departPos="5.10" departSpeed="0.00" departDelay="0.00" arrival="278.00" arrivalLane="A3top0_0" arrivalPos="286.40" arrivalSpeed="13.91" duration="134.00" routeLength="1495.35" waitingTime="7.00" waitingCount="1" stopTime="0.00" timeLoss="28.09" rerouteNo="0" devices="tripinfo_28" vType="DEFAULT_VEHTYPE" speedFactor="1.02" vaporized=""/>
    <tripinfo id="9" depart="42.00" departLane="right0D0_0" departPos="5.10" departSpeed="0.00" departDelay="0.00" arrival="280.00" arrivalLane="A3left3_0" arrivalPos="286.40" arrivalSpeed="12.99" duration="238.00" routeLength="2382.93" waitingTime="21.00" waitingCount="5" stopTime="0.00" timeLoss="57.21" rerouteNo="0" devices="tripinfo_9" vType="DEFAULT_VEHTYPE" speedFactor="0.96" vaporized=""/>
    <tripinfo id="14" depart="60.00" departLane="left0A0_0" departPos="5.10" departSpeed="0.00" departDelay="0.00" arrival="280.00" arrivalLane="D3right3_1" arrivalPos="286.40" arrivalSpeed="14.21" duration="220.00" routeLength="2380.22" waitingTime="16.00" waitingCount="5" stopTime="0.00" timeLoss="54.52" rerouteNo="0" devices="tripinfo_14" vType="DEFAULT_VEHTYPE" speedFactor="1.04" vaporized=""/>
    <tripinfo id="22" depart="91.00" departLane="bottom2C0_0" departPos="5.10" departSpeed="0.00" departDelay="0.00" arrival="280.00" arrivalLane="D3right3_0" arrivalPos="286.40" arrivalSpeed="12.66" duration="189.00" routeLength="1780.11" waitingTime="30.00" waitingCount="3" stopTime="0.00" timeLoss="58.78" rerouteNo="0" devices="tripinfo_22" vType="DEFAULT_VEHTYPE" speedFactor="0.99" vaporized=""/>
    <tripinfo id="41" depart="200.00" departLane="bottom3D0_0" departPos="5.10" departSpeed="0.00" departDelay="0.00" arrival="289.00" arrivalLane="C0bottom2_0" arrivalPos="286.40" arrivalSpeed="13.39" duration="89.00" routeLength="894.86" waitingTime="12.00" waitingCount="1" stopTime="0.00" timeLoss="24.69" rerouteNo="0" devices="tripinfo_41" vType="DEFAULT_VEHTYPE" speedFactor="1.02" vaporized=""/>
    <tripinfo id="20" depart="79.00" departLane="left2A2_0" departPos="5.10" departSpeed="0.00" departDelay="0.00" arrival="302.00" arrivalLane="D3top3_0" arrivalPos="286.40" arrivalSpeed="12.14" duration="223.00" routeLength="1795.52" waitingTime="43.00" waitingCount="4" stopTime="0.00" timeLoss="74.95" rerouteNo="0" devices="tripinfo_20" vType="DEFAULT_VEHTYPE" speedFactor="0.88" vaporized=""/>
    <tripinfo id="17" depart="62.00" departLane="left2A2_0" departPos="5.10" departSpeed="0.00" departDelay="0.00" arrival="305.00" arrivalLane="A2left2_0" arrivalPos="286.40" arrivalSpeed="10.05" duration="243.00" routeLength="1748.75" waitingTime="55.00" waitingCount="4" stopTime="0.00" timeLoss="85.46" rerouteNo="0" devices="tripinfo_17" vType="DEFAULT_VEHTYPE" speedFactor="0.81" vaporized=""/>
    <tripinfo id="35" depart="183.00" departLane="bottom3D0_0" departPos="5.10" departSpeed="0.00" departDelay="0.00" arrival="314.00" arrivalLane="D3right3_0" arrivalPos="286.40" arrivalSpeed="14.15" duration="131.00" routeLength="1477.24" waitingTime="8.00" waitingCount="3" stopTime="0.00" timeLoss="33.93" rerouteNo="0" devices="tripinfo_35" vType="DEFAULT_VEHTYPE" speedFactor="1.10" vaporized=""/>
    <tripinfo id="31" depart="153.00" departLane="bottom2C0_0" departPos="5.10" departSpeed="0.00" departDelay="0.00" arrival="319.00" arrivalLane="C0bottom2_0" arrivalPos="286.40" arrivalSpeed="13.68" duration="166.00" routeLength="1748.75" waitingTime="10.00" waitingCount="4" stopTime="0.00" timeLoss="41.90" rerouteNo="0" devices="tripinfo_31" vType="DEFAULT_VEHTYPE" speedFactor="1.04" vaporized=""/>
    <tripinfo id="36" depart="186.00" departLane="bottom0A0_0" departPos="5.10" departSpeed="0.00" departDelay="0.00" arrival="330.00" arrivalLane="A3left3_0" arrivalPos="286.40" arrivalSpeed="13.12" duration="144.00" routeLength="1498.06" waitingTime="16.00" waitingCount="2" stopTime="0.00" timeLoss="33.42" rerouteNo="0" devices="tripinfo_36" vType="DEFAULT_VEHTYPE" speedFactor="0.99" vaporized=""/>
    <tripinfo id="48" depart="225.00" departLane="bottom2C0_0" departPos="5.10" departSpeed="0.00" departDelay="0.00" arrival="337.00" arrivalLane="D1right1_0" arrivalPos="286.40" arrivalSpeed="14.45" duration="112.00" routeLength="1179.77" waitingTime="17.00" waitingCount="2" stopTime="0.00" timeLoss="35.01" rerouteNo="0" devices="tripinfo_48" vType="DEFAULT_VEHTYPE" speedFactor="1.13" vaporized=""/>
    <tripinfo id="32" depart="159.00" departLane="top1B3_0" departPos="5.10" departSpeed="0.00" departDelay="0.00" arrival="339.00" arrivalLane="B3top1_0" arrivalPos="286.40" arrivalSpeed="12.63" duration="180.00" routeLength="1748.75" waitingTime="14.00" waitingCount="5" stopTime="0.00" timeLoss="51.43" rerouteNo="0" devices="tripinfo_32" vType="DEFAULT_VEHTYPE" speedFactor="1.00" vaporized=""/>
    <tripinfo id="33" depart="164.00" departLane="top3D3_0" departPos="5.10" departSpeed="0.00" departDelay="0.00" arrival="349.00" arrivalLane="A2left2_0" arrivalPos="286.40" arrivalSpeed="13.73" duration="185.00" routeLength="1780.11" waitingTime="29.00" waitingCount="3" stopTime="0.00" timeLoss="58.47" rerouteNo="0" devices="tripinfo_33" vType="DEFAULT_VEHTYPE" speedFactor="1.02" vaporized=""/>
    <tripinfo id="42" depart="202.00" departLane="top0A3_0" departPos="5.10" departSpeed="0.00" departDelay="0.00" arrival="349.00" arrivalLane="D3top3_0" arrivalPos="286.40" arrivalSpeed="13.11" duration="147.00" routeLength="1497.83" waitingTime="14.00" waitingCount="3" stopTime="0.00" timeLoss="39.46" rerouteNo="0" devices="tripinfo_42" vType="DEFAULT_VEHTYPE" speedFactor="1.02" vaporized=""/>
    <tripinfo id="39" depart="199.00" departLane="top2C3_0" departPos="5.10" departSpeed="0.00" departDelay="0.00" arrival="351.00" arrivalLane="A2left2_1" arrivalPos="286.40" arrivalSpeed="14.90" duration="152.00" routeLength="1479.94" waitingTime="21.00" waitingCount="3" stopTime="0.00" timeLoss="54.51" rerouteNo="0" devices="tripinfo_39" vType="DEFAULT_VEHTYPE" speedFactor="1.10" vaporized=""/>
    <tripinfo id="38" depart="192.00" departLane="top2C3_0" departPos="5.10" departSpeed="0.00" departDelay="0.00" arrival="353.00" arrivalLane="A2left2_0" arrivalPos="286.40" arrivalSpeed="12.12" duration="161.00" routeLength="1479.94" waitingTime="18.00" waitingCount="3" stopTime="0.00" timeLoss="41.02" rerouteNo="0" devices="tripinfo_38" vType="DEFAULT_VEHTYPE" speedFactor="0.89" vaporized=""/>
    <tripinfo id="51" depart="237.00" departLane="bottom2C0_0" departPos="5.10" departSpeed="0.00" departDelay="0.00" arrival="357.00" arrivalLane="C3top2_0" arrivalPos="286.40" arrivalSpeed="15.32" duration="120.00" routeLength="1495.58" waitingTime="4.00" waitingCount="1" stopTime="0.00" timeLoss="21.93" rerouteNo="0" devices="tripinfo_51" vType="DEFAULT_VEHTYPE" speedFactor="1.10" vaporized=""/>
    <tripinfo id="62" depart="282.00" departLane="right2D2_0" departPos="5.10" departSpeed="0.00" departDelay="0.00" arrival="365.00" arrivalLane="D3right3_0" arrivalPos="286.40" arrivalSpeed="12.14" duration="83.00" routeLength="858.56" waitingTime="2.00" waitingCount="2" stopTime="0.00" timeLoss="17.21" rerouteNo="0" devices="tripinfo_62" vType="DEFAULT_VEHTYPE" speedFactor="0.96" vaporized=""/>
    <tripinfo id="40" depart="199.00" departLane="bottom1B0_0" departPos="5.10" departSpeed="0.00" departDelay="0.00" arrival="388.00" arrivalLane="D2right2_0" arrivalPos="286.40" arrivalSpeed="14.24" duration="189.00" routeLength="1780.11" waitingTime="38.00" waitingCount="3" stopTime="0.00" timeLoss="67.90" rerouteNo="0" devices="tripinfo_40" vType="DEFAULT_VEHTYPE" speedFactor="1.07" vaporized=""/>
    <tripinfo id="46" depart="213.00" departLane="left1A1_0" departPos="5.10" departSpeed="0.00" departDelay="0.00" arrival="390.00" arrivalLane="D2right2_0" arrivalPos="286.40" arrivalSpeed="14.63" duration="177.00" routeLength="1782.59" waitingTime="27.00" waitingCount="3" stopTime="0.00" timeLoss="54.75" rerouteNo="0" devices="tripinfo_46" vType="DEFAULT_VEHTYPE" speedFactor="1.07" vaporized=""/>
    <tripinfo id="43" depart="205.00" departLane="right0D0_0" departPos="5.10" departSpeed="0.00" departDelay="0.00" arrival="395.00" arrivalLane="A1left1_0" arrivalPos="286.40" arrivalSpeed="12.31" duration="190.00" routeLength="1782.72" waitingTime="25.00" waitingCount="3" stopTime="0.00" timeLoss="52.64" rerouteNo="0" devices="tripinfo_43" vType="DEFAULT_VEHTYPE" speedFactor="0.94" vaporized=""/>
    <tripinfo id="47" depart="223.00" departLane="top0A3_0" departPos="5.10" departSpeed="0.00" departDelay="0.00" arrival="401.00" arrivalLane="D3top3_0" arrivalPos="286.40" arrivalSpeed="12.36" duration="178.00" routeLength="1497.83" waitingTime="35.00" waitingCount="2" stopTime="0.00" timeLoss="59.90" rerouteNo="0" devices="tripinfo_47" vType="DEFAULT_VEHTYPE" speedFactor="0.92" vaporized=""/>
    <tripinfo id="80" depart="345.00" departLane="left0A0_0" departPos="5.10" departSpeed="0.00" departDelay="0.00" arrival="403.00" arrivalLane="A0bottom0_0" arrivalPos="286.40" arrivalSpeed="11.15" duration="58.00" routeLength="576.73" waitingTime="1.00" waitingCount="1" stopTime="0.00" timeLoss="9.65" rerouteNo="0" devices="tripinfo_80" vType="DEFAULT_VEHTYPE" speedFactor="0.88" vaporized=""/>
    <tripinfo id="49" depart="230.00" departLane="top2C3_0" departPos="5.10" departSpeed="0.00" departDelay="0.00" arrival="404.00" arrivalLane="D0bottom3_0" arrivalPos="286.40" arrivalSpeed="11.35" duration="174.00" routeLength="1782.59" waitingTime="9.00" waitingCount="2" stopTime="0.00" timeLoss="28.55" rerouteNo="0" devices="tripinfo_49" vType="DEFAULT_VEHTYPE" speedFactor="0.89" vaporized=""/>
    <tripinfo id="59" depart="277.00" departLane="top3D3_0" departPos="5.10" departSpeed="0.00" departDelay="0.00" arrival="404.00" arrivalLane="D1right1_0" arrivalPos="286.40" arrivalSpeed="10.38" duration="127.00" routeLength="1197.89" waitingTime="8.00" waitingCount="1" stopTime="0.00" timeLoss="22.23" rerouteNo="0" devices="tripinfo_59" vType="DEFAULT_VEHTYPE" speedFactor="0.83" vaporized=""/>
    <tripinfo id="71" depart="321.00" departLane="right0D0_0" departPos="5.10" departSpeed="0.00" departDelay="0.00" arrival="406.00" arrivalLane="D1right1_0" arrivalPos="286.40" arrivalSpeed="12.82" duration="85.00" routeLength="858.56" waitingTime="2.00" waitingCount="2" stopTime="0.00" timeLoss="18.34" rerouteNo="0" devices="tripinfo_71" vType="DEFAULT_VEHTYPE" speedFactor="0.95" vaporized=""/>
    <tripinfo id="73" depart="323.00" departLane="right2D2_0" departPos="5.10" departSpeed="0.00" departDelay="0.00" arrival="407.00" arrivalLane="D3right3_0" arrivalPos="286.40" arrivalSpeed="12.32" duration="84.00" routeLength="858.56" waitingTime="1.00" waitingCount="1" stopTime="0.00" timeLoss="14.04" rerouteNo="0" devices="tripinfo_73" vType="DEFAULT_VEHTYPE" speedFactor="0.90" vaporized=""/>
    <tripinfo id="45" depart="212.00" departLane="bottom1B0_0" departPos="5.10" departSpeed="0.00" departDelay="0.00" arrival="410.00" arrivalLane="A3top0_0" arrivalPos="286.40" arrivalSpeed="12.31" duration="198.00" routeLength="1782.59" waitingTime="27.00" waitingCount="4" stopTime="0.00" timeLoss="57.45" rerouteNo="0" devices="tripinfo_45" vType="DEFAULT_VEHTYPE" speedFactor="0.92" vaporized=""/>
    <tripinfo id="74" depart="325.00" departLane="top2C3_0" departPos="5.10" departSpeed="0.00" departDelay="0.00" arrival="420.00" arrivalLane="D3right3_0" arrivalPos="286.40" arrivalSpeed="13.37" duration="95.00" routeLength="895.01" waitingTime="22.00" waitingCount="1" stopTime="0.00" timeLoss="31.54" rerouteNo="0" devices="tripinfo_74" vType="DEFAULT_VEHTYPE" speedFactor="1.02" vaporized=""/>
    <tripinfo id="82" depart="350.00" departLane="left3A3_0" departPos="5.10" departSpeed="0.00" departDelay="0.00" arrival="421.00" arrivalLane="A2left2_0" arrivalPos="286.40" arrivalSpeed="14.34" duration="71.00" routeLength="858.56" waitingTime="0.00" waitingCount="0" stopTime="0.00" timeLoss="10.21" rerouteNo="0" devices="tripinfo_82" vType="DEFAULT_VEHTYPE" speedFactor="1.05" vaporized=""/>
    <tripinfo id="68" depart="303.00" departLane="top3D3_0" departPos="5.10" departSpeed="0.00" departDelay="0.00" arrival="436.00" arrivalLane="A3left3_0" arrivalPos="286.40" arrivalSpeed="15.43" duration="133.00" routeLength="1479.94" waitingTime="11.00" waitingCount="3" stopTime="0.00" timeLoss="39.27" rerouteNo="0" devices="tripinfo_68" vType="DEFAULT_VEHTYPE" speedFactor="1.14" vaporized=""/>
    <tripinfo id="58" depart="275.00" departLane="bottom1B0_0" departPos="5.10" departSpeed="0.00" departDelay="0.00" arrival="442.00" arrivalLane="B3top1_0" arrivalPos="286.40" arrivalSpeed="11.43" duration="167.00" routeLength="1495.58" waitingTime="18.00" waitingCount="2" stopTime="0.00" timeLoss="43.84" rerouteNo="0" devices="tripinfo_58" vType="DEFAULT_VEHTYPE" speedFactor="0.88" vaporized=""/>
    <tripinfo id="53" depart="251.00" departLane="top1B3_0" departPos="5.10" departSpeed="0.00" departDelay="0.00" arrival="445.00" arrivalLane="B0bottom1_0" arrivalPos="286.40" arrivalSpeed="9.88" duration="194.00" routeLength="1495.58" waitingTime="34.00" waitingCount="3" stopTime="0.00" timeLoss="57.51" rerouteNo="0" devices="tripinfo_53" vType="DEFAULT_VEHTYPE" speedFactor="0.79" vaporized=""/>
    <tripinfo id="57" depart="272.00" departLane="bottom1B0_0" departPos="5.10" departSpeed="0.00" departDelay="0.00" arrival="448.00" arrivalLane="C3top2_0" arrivalPos="286.40" arrivalSpeed="14.59" duration="176.00" routeLength="1782.72" waitingTime="23.00" waitingCount="4" stopTime="0.00" timeLoss="56.86" rerouteNo="0" devices="tripinfo_57" vType="DEFAULT_VEHTYPE" speedFactor="1.09" vaporized=""/>
    <tripinfo id="75" depart="327.00" departLane="bottom3D0_0" departPos="5.10" departSpeed="0.00" departDelay="0.00" arrival="458.00" arrivalLane="B0bottom1_0" arrivalPos="286.40" arrivalSpeed="14.75" duration="131.00" routeLength="1197.66" waitingTime="25.00" waitingCount="3" stopTime="0.00" timeLoss="51.01" rerouteNo="0" devices="tripinfo_75" vType="DEFAULT_VEHTYPE" speedFactor="1.10" vaporized=""/>
    <tripinfo id="50" depart="233.00" departLane="top1B3_0" departPos="5.10" departSpeed="0.00" departDelay="0.00" arrival="459.00" arrivalLane="D0right0_0" arrivalPos="286.40" arrivalSpeed="12.89" duration="226.00" routeLength="2095.69" waitingTime="43.00" waitingCount="4" stopTime="0.00" timeLoss="76.46" rerouteNo="0" devices="tripinfo_50" vType="DEFAULT_VEHTYPE" speedFactor="1.02" vaporized=""/>
    <tripinfo id="65" depart="292.00" departLane="left3A3_0" departPos="5.10" departSpeed="0.00" departDelay="0.00" arrival="459.00" arrivalLane="D2right2_0" arrivalPos="286.40" arrivalSpeed="12.92" duration="167.00" routeLength="1782.72" waitingTime="8.00" waitingCount="1" stopTime="0.00" timeLoss="34.30" rerouteNo="0" devices="tripinfo_65" vType="DEFAULT_VEHTYPE" speedFactor="0.98" vaporized=""/>
    <tripinfo id="76" depart="327.00" departLane="bottom0A0_0" departPos="5.10" departSpeed="0.00" departDelay="0.00" arrival="460.00" arrivalLane="A2left2_0" arrivalPos="286.40" arrivalSpeed="13.32" duration="133.00" routeLength="1197.89" waitingTime="21.00" waitingCount="3" stopTime="0.00" timeLoss="44.27" rerouteNo="0" devices="tripinfo_76" vType="DEFAULT_VEHTYPE" speedFactor="0.98" vaporized=""/>
    <tripinfo id="44" depart="210.00" departLane="bottom0A0_0" departPos="5.10" departSpeed="0.00" departDelay="0.00" arrival="462.00" arrivalLane="D3top3_0" arrivalPos="286.40" arrivalSpeed="11.31" duration="252.00" routeLength="2382.93" waitingTime="24.00" waitingCount="4" stopTime="0.00" timeLoss="61.81" rerouteNo="0" devices="tripinfo_44" vType="DEFAULT_VEHTYPE" speedFactor="0.91" vaporized=""/>
    <tripinfo id="70" depart="315.00" departLane="top0A3_0" departPos="5.10" departSpeed="0.00" departDelay="0.00" arrival="462.00" arrivalLane="D3top3_1" arrivalPos="286.40" arrivalSpeed="13.83" duration="147.00" routeLength="1497.83" waitingTime="21.00" waitingCount="2" stopTime="0.00" timeLoss="39.82" rerouteNo="0" devices="tripinfo_70" vType="DEFAULT_VEHTYPE" speedFactor="1.02" vaporized=""/>
    <tripinfo id="52" depart="251.00" departLane="top3D3_0" departPos="5.10" departSpeed="0.00" departDelay="0.00" arrival="464.00" arrivalLane="A1left1_0" arrivalPos="286.40" arrivalSpeed="10.56" duration="213.00" routeLength="2080.28" waitingTime="8.00" waitingCount="1" stopTime="0.00" timeLoss="28.19" rerouteNo="0" devices="tripinfo_52" vType="DEFAULT_VEHTYPE" speedFactor="0.82" vaporized=""/>
    <tripinfo id="69" depart="307.00" departLane="bottom0A0_0" departPos="5.10" departSpeed="0.00" departDelay="0.00" arrival="476.00" arrivalLane="D0bottom3_0" arrivalPos="286.40" arrivalSpeed="10.71" duration="169.00" routeLength="1461.60" waitingTime="13.00" waitingCount="4" stopTime="0.00" timeLoss="42.29" rerouteNo="0" devices="tripinfo_69" vType="DEFAULT_VEHTYPE" speedFactor="0.84" vaporized=""/>
    <tripinfo id="66" depart="293.00" departLane="top1B3_0" departPos="5.10" departSpeed="0.00" departDelay="0.00" arrival="479.00" arrivalLane="C0bottom2_0" arrivalPos="286.40" arrivalSpeed="13.54" duration="186.00" routeLength="1782.59" waitingTime="19.00" waitingCount="3" stopTime="0.00" timeLoss="54.60" rerouteNo="0" devices="tripinfo_66" vType="DEFAULT_VEHTYPE" speedFactor="0.98" vaporized=""/>
    <tripinfo id="88" depart="366.00" departLane="top1B3_0" departPos="5.10" departSpeed="0.00" departDelay="0.00" arrival="479.00" arrivalLane="D3right3_1" arrivalPos="286.40" arrivalSpeed="14.64" duration="113.00" routeLength="1195.18" waitingTime="12.00" waitingCount="2" stopTime="0.00" timeLoss="31.82" rerouteNo="0" devices="tripinfo_88" vType="DEFAULT_VEHTYPE" speedFactor="1.07" vaporized=""/>
    <tripinfo id="54" depart="260.00" departLane="top0A3_0" departPos="5.10" departSpeed="0.00" departDelay="0.00" arrival="480.00" arrivalLane="D0right0_1" arrivalPos="286.40" arrivalSpeed="13.70" duration="220.00" routeLength="2395.86" waitingTime="25.00" waitingCount="3" stopTime="0.00" timeLoss="57.03" rerouteNo="0" devices="tripinfo_54" vType="DEFAULT_VEHTYPE" speedFactor="1.06" vaporized=""/>