<?xml version="1.0" encoding="UTF-8"?>

<!-- generated on 12/19/21 12:26:17 by Eclipse SUMO sumo Version 1.7.0
<configuration xmlns:xsi="http://www.w3.org/2001/XMLSchema-instance" xsi:noNamespaceSchemaLocation="http://sumo.dlr.de/xsd/sumoConfiguration.xsd">

    <input>
        <net-file value="C:\Users\longs\Desktop\RESCO-main\environments\grid4x4\grid4x4.net.xml"/>
        <route-files value="C:\Users\longs\Desktop\RESCO-main\environments\grid4x4\grid4x4_98.rou.xml"/>
    </input>

    <output>
        <tripinfo-output value="C:\Users\longs\Desktop\RESCO-main\logs\IDQN-tr1-grid4x4-0-drqlong-delaydiff_pressure01\tripinfo_98.xml"/>
        <tripinfo-output.write-unfinished value="true"/>
    </output>

    <processing>
        <time-to-teleport value="-1"/>
    </processing>

    <report>
        <no-warnings value="true"/>
        <no-step-log value="true"/>
    </report>

    <traci_server>
        <remote-port value="50554"/>
    </traci_server>

    <random_number>
        <random value="true"/>
    </random_number>

</configuration>
-->

<tripinfos xmlns:xsi="http://www.w3.org/2001/XMLSchema-instance" xsi:noNamespaceSchemaLocation="http://sumo.dlr.de/xsd/tripinfo_file.xsd">
    <tripinfo id="1" depart="8.00" departLane="bottom0A0_0" departPos="5.10" departSpeed="0.00" departDelay="0.00" arrival="96.00" arrivalLane="B0bottom1_0" arrivalPos="286.40" arrivalSpeed="11.83" duration="88.00" routeLength="858.56" waitingTime="2.00" waitingCount="2" stopTime="0.00" timeLoss="17.63" rerouteNo="0" devices="tripinfo_1" vType="DEFAULT_VEHTYPE" speedFactor="0.90" vaporized=""/>
    <tripinfo id="12" depart="41.00" departLane="top3D3_0" departPos="5.10" departSpeed="0.00" departDelay="0.00" arrival="121.00" arrivalLane="C3top2_0" arrivalPos="286.40" arrivalSpeed="13.01" duration="80.00" routeLength="858.56" waitingTime="1.00" waitingCount="1" stopTime="0.00" timeLoss="12.24" rerouteNo="0" devices="tripinfo_12" vType="DEFAULT_VEHTYPE" speedFactor="0.94" vaporized=""/>
    <tripinfo id="2" depart="13.00" departLane="bottom0A0_0" departPos="5.10" departSpeed="0.00" departDelay="0.00" arrival="166.00" arrivalLane="A3left3_0" arrivalPos="286.40" arrivalSpeed="12.15" duration="153.00" routeLength="1498.06" waitingTime="17.00" waitingCount="2" stopTime="0.00" timeLoss="34.55" rerouteNo="0" devices="tripinfo_2" vType="DEFAULT_VEHTYPE" speedFactor="0.92" vaporized=""/>
    <tripinfo id="5" depart="21.00" departLane="bottom1B0_0" departPos="5.10" departSpeed="0.00" departDelay="0.00" arrival="167.00" arrivalLane="A2left2_0" arrivalPos="286.40" arrivalSpeed="11.23" duration="146.00" routeLength="1495.35" waitingTime="8.00" waitingCount="2" stopTime="0.00" timeLoss="25.25" rerouteNo="0" devices="tripinfo_5" vType="DEFAULT_VEHTYPE" speedFactor="0.90" vaporized=""/>
    <tripinfo id="6" depart="24.00" departLane="left3A3_0" departPos="5.10" departSpeed="0.00" departDelay="0.00" arrival="175.00" arrivalLane="A0left0_0" arrivalPos="286.40" arrivalSpeed="11.85" duration="151.00" routeLength="1461.60" waitingTime="13.00" waitingCount="3" stopTime="0.00" timeLoss="34.74" rerouteNo="0" devices="tripinfo_6" vType="DEFAULT_VEHTYPE" speedFactor="0.92" vaporized=""/>
    <tripinfo id="15" depart="81.00" departLane="right0D0_0" departPos="5.10" departSpeed="0.00" departDelay="0.00" arrival="180.00" arrivalLane="D2right2_0" arrivalPos="286.40" arrivalSpeed="13.61" duration="99.00" routeLength="1161.43" waitingTime="1.00" waitingCount="1" stopTime="0.00" timeLoss="14.95" rerouteNo="0" devices="tripinfo_15" vType="DEFAULT_VEHTYPE" speedFactor="1.01" vaporized=""/>
    <tripinfo id="13" depart="42.00" departLane="top1B3_0" departPos="5.10" departSpeed="0.00" departDelay="0.00" arrival="188.00" arrivalLane="D2right2_0" arrivalPos="286.40" arrivalSpeed="13.38" duration="146.00" routeLength="1495.35" waitingTime="15.00" waitingCount="2" stopTime="0.00" timeLoss="34.88" rerouteNo="0" devices="tripinfo_13" vType="DEFAULT_VEHTYPE" speedFactor="0.98" vaporized=""/>
    <tripinfo id="17" depart="91.00" departLane="left1A1_0" departPos="5.10" departSpeed="0.00" departDelay="0.00" arrival="190.00" arrivalLane="A0bottom0_1" arrivalPos="286.40" arrivalSpeed="13.68" duration="99.00" routeLength="879.60" waitingTime="20.00" waitingCount="2" stopTime="0.00" timeLoss="36.69" rerouteNo="0" devices="tripinfo_17" vType="DEFAULT_VEHTYPE" speedFactor="1.02" vaporized=""/>
    <tripinfo id="0" depart="6.00" departLane="top1B3_0" departPos="5.10" departSpeed="0.00" departDelay="0.00" arrival="191.00" arrivalLane="A0bottom0_0" arrivalPos="286.40" arrivalSpeed="12.24" duration="185.00" routeLength="1782.72" waitingTime="22.00" waitingCount="2" stopTime="0.00" timeLoss="42.77" rerouteNo="0" devices="tripinfo_0" vType="DEFAULT_VEHTYPE" speedFactor="0.91" vaporized=""/>
    <tripinfo id="7" depart="26.00" departLane="top2C3_0" departPos="5.10" departSpeed="0.00" departDelay="0.00" arrival="199.00" arrivalLane="D0bottom3_0" arrivalPos="286.40" arrivalSpeed="14.14" duration="173.00" routeLength="1782.59" waitingTime="26.00" waitingCount="3" stopTime="0.00" timeLoss="49.80" rerouteNo="0" devices="tripinfo_7" vType="DEFAULT_VEHTYPE" speedFactor="1.05" vaporized=""/>
    <tripinfo id="10" depart="35.00" departLane="top2C3_0" departPos="5.10" departSpeed="0.00" departDelay="0.00" arrival="199.00" arrivalLane="A1left1_0" arrivalPos="286.40" arrivalSpeed="12.51" duration="164.00" routeLength="1780.11" waitingTime="2.00" waitingCount="2" stopTime="0.00" timeLoss="23.10" rerouteNo="0" devices="tripinfo_10" vType="DEFAULT_VEHTYPE" speedFactor="0.91" vaporized=""/>
    <tripinfo id="9" depart="32.00" departLane="right2D2_0" departPos="5.10" departSpeed="0.00" departDelay="0.00" arrival="213.00" arrivalLane="A0bottom0_0" arrivalPos="286.40" arrivalSpeed="13.32" duration="181.00" routeLength="2095.69" waitingTime="13.00" waitingCount="2" stopTime="0.00" timeLoss="31.93" rerouteNo="0" devices="tripinfo_9" vType="DEFAULT_VEHTYPE" speedFactor="1.02" vaporized=""/>
    <tripinfo id="26" depart="161.00" departLane="top0A3_0" departPos="5.10" departSpeed="0.00" departDelay="0.00" arrival="215.00" arrivalLane="A3left3_0" arrivalPos="286.40" arrivalSpeed="12.69" duration="54.00" routeLength="576.73" waitingTime="1.00" waitingCount="1" stopTime="0.00" timeLoss="11.54" rerouteNo="0" devices="tripinfo_26" vType="DEFAULT_VEHTYPE" speedFactor="0.99" vaporized=""/>
    <tripinfo id="4" depart="19.00" departLane="bottom3D0_0" departPos="5.10" departSpeed="0.00" departDelay="0.00" arrival="230.00" arrivalLane="A3left3_1" arrivalPos="286.40" arrivalSpeed="14.40" duration="211.00" routeLength="2395.86" waitingTime="23.00" waitingCount="3" stopTime="0.00" timeLoss="47.83" rerouteNo="0" devices="tripinfo_4" vType="DEFAULT_VEHTYPE" speedFactor="1.06" vaporized=""/>
    <tripinfo id="3" depart="16.00" departLane="right3D3_0" departPos="5.10" departSpeed="0.00" departDelay="0.00" arrival="231.00" arrivalLane="A1left1_0" arrivalPos="286.40" arrivalSpeed="11.76" duration="215.00" routeLength="2080.05" waitingTime="21.00" waitingCount="3" stopTime="0.00" timeLoss="51.40" rerouteNo="0" devices="tripinfo_3" vType="DEFAULT_VEHTYPE" speedFactor="0.92" vaporized=""/>
    <tripinfo id="24" depart="140.00" departLane="top1B3_0" departPos="5.10" departSpeed="0.00" departDelay="0.00" arrival="231.00" arrivalLane="A3left3_0" arrivalPos="286.40" arrivalSpeed="11.99" duration="91.00" routeLength="879.60" waitingTime="6.00" waitingCount="2" stopTime="0.00" timeLoss="22.14" rerouteNo="0" devices="tripinfo_24" vType="DEFAULT_VEHTYPE" speedFactor="0.94" vaporized=""/>
    <tripinfo id="19" depart="99.00" departLane="left0A0_0" departPos="5.10" departSpeed="0.00" departDelay="0.00" arrival="246.00" arrivalLane="A3left3_0" arrivalPos="286.40" arrivalSpeed="11.80" duration="147.00" routeLength="1497.83" waitingTime="6.00" waitingCount="1" stopTime="0.00" timeLoss="29.71" rerouteNo="0" devices="tripinfo_19" vType="DEFAULT_VEHTYPE" speedFactor="0.93" vaporized=""/>
    <tripinfo id="25" depart="140.00" departLane="right2D2_0" departPos="5.10" departSpeed="0.00" departDelay="0.00" arrival="248.00" arrivalLane="C3top2_0" arrivalPos="286.40" arrivalSpeed="13.83" duration="108.00" routeLength="1179.77" waitingTime="11.00" waitingCount="2" stopTime="0.00" timeLoss="27.72" rerouteNo="0" devices="tripinfo_25" vType="DEFAULT_VEHTYPE" speedFactor="1.07" vaporized=""/>
    <tripinfo id="21" depart="114.00" departLane="top0A3_0" departPos="5.10" departSpeed="0.00" departDelay="0.00" arrival="250.00" arrivalLane="A1left1_0" arrivalPos="286.40" arrivalSpeed="12.64" duration="136.00" routeLength="1177.07" waitingTime="19.00" waitingCount="2" stopTime="0.00" timeLoss="41.50" rerouteNo="0" devices="tripinfo_21" vType="DEFAULT_VEHTYPE" speedFactor="0.91" vaporized=""/>
    <tripinfo id="22" depart="117.00" departLane="left0A0_0" departPos="5.10" departSpeed="0.00" departDelay="0.00" arrival="251.00" arrivalLane="D0right0_0" arrivalPos="286.40" arrivalSpeed="12.98" duration="134.00" routeLength="1495.58" waitingTime="8.00" waitingCount="2" stopTime="0.00" timeLoss="28.22" rerouteNo="0" devices="tripinfo_22" vType="DEFAULT_VEHTYPE" speedFactor="1.02" vaporized=""/>
    <tripinfo id="11" depart="38.00" departLane="right3D3_0" departPos="5.10" departSpeed="0.00" departDelay="0.00" arrival="272.00" arrivalLane="A0bottom0_0" arrivalPos="286.40" arrivalSpeed="12.80" duration="234.00" routeLength="2395.86" waitingTime="18.00" waitingCount="4" stopTime="0.00" timeLoss="58.16" rerouteNo="0" devices="tripinfo_11" vType="DEFAULT_VEHTYPE" speedFactor="0.99" vaporized=""/>
    <tripinfo id="8" depart="31.00" departLane="right0D0_0" departPos="5.10" departSpeed="0.00" departDelay="0.00" arrival="283.00" arrivalLane="B3top1_0" arrivalPos="286.40" arrivalSpeed="10.82" duration="252.00" routeLength="2080.28" waitingTime="37.00" waitingCount="5" stopTime="0.00" timeLoss="69.83" rerouteNo="0" devices="tripinfo_8" vType="DEFAULT_VEHTYPE" speedFactor="0.83" vaporized=""/>
    <tripinfo id="20" depart="110.00" departLane="right2D2_0" departPos="5.10" departSpeed="0.00" departDelay="0.00" arrival="288.00" arrivalLane="A3left3_0" arrivalPos="286.40" arrivalSpeed="13.94" duration="178.00" routeLength="1782.72" waitingTime="25.00" waitingCount="4" stopTime="0.00" timeLoss="55.71" rerouteNo="0" devices="tripinfo_20" vType="DEFAULT_VEHTYPE" speedFactor="1.06" vaporized=""/>
    <tripinfo id="18" depart="96.00" departLane="left2A2_0" departPos="5.10" departSpeed="0.00" departDelay="0.00" arrival="302.00" arrivalLane="D0right0_0" arrivalPos="286.40" arrivalSpeed="12.07" duration="206.00" routeLength="2082.76" waitingTime="12.00" waitingCount="3" stopTime="0.00" timeLoss="37.96" rerouteNo="0" devices="tripinfo_18" vType="DEFAULT_VEHTYPE" speedFactor="0.90" vaporized=""/>
    <tripinfo id="30" depart="190.00" departLane="left3A3_0" departPos="5.10" departSpeed="0.00" departDelay="0.00" arrival="309.00" arrivalLane="C3top2_0" arrivalPos="286.40" arrivalSpeed="12.69" duration="119.00" routeLength="1197.89" waitingTime="15.00" waitingCount="2" stopTime="0.00" timeLoss="32.22" rerouteNo="0" devices="tripinfo_30" vType="DEFAULT_VEHTYPE" speedFactor="1.01" vaporized=""/>
    <tripinfo id="23" depart="136.00" departLane="top0A3_0" departPos="5.10" departSpeed="0.00" departDelay="0.00" arrival="314.00" arrivalLane="A3top0_0" arrivalPos="286.40" arrivalSpeed="11.51" duration="178.00" routeLength="1745.91" waitingTime="6.00" waitingCount="1" stopTime="0.00" timeLoss="24.49" rerouteNo="0" devices="tripinfo_23" vType="DEFAULT_VEHTYPE" speedFactor="0.84" vaporized=""/>
    <tripinfo id="14" depart="78.00" departLane="right2D2_0" departPos="5.10" departSpeed="0.00" departDelay="0.00" arrival="319.00" arrivalLane="A0bottom0_0" arrivalPos="286.40" arrivalSpeed="9.20" duration="241.00" routeLength="2095.69" waitingTime="15.00" waitingCount="2" stopTime="0.00" timeLoss="38.40" rerouteNo="0" devices="tripinfo_14" vType="DEFAULT_VEHTYPE" speedFactor="0.75" vaporized=""/>
    <tripinfo id="27" depart="167.00" departLane="left2A2_0" departPos="5.10" departSpeed="0.00" departDelay="0.00" arrival="319.00" arrivalLane="B0bottom1_0" arrivalPos="286.40" arrivalSpeed="13.47" duration="152.00" routeLength="1479.94" waitingTime="23.00" waitingCount="3" stopTime="0.00" timeLoss="47.85" rerouteNo="0" devices="tripinfo_27" vType="DEFAULT_VEHTYPE" speedFactor="1.03" vaporized=""/>
    <tripinfo id="16" depart="86.00" departLane="bottom1B0_0" departPos="5.10" departSpeed="0.00" departDelay="0.00" arrival="324.00" arrivalLane="D3top3_0" arrivalPos="286.40" arrivalSpeed="11.34" duration="238.00" routeLength="2082.76" waitingTime="24.00" waitingCount="4" stopTime="0.00" timeLoss="53.94" rerouteNo="0" devices="tripinfo_16" vType="DEFAULT_VEHTYPE" speedFactor="0.82" vaporized=""/>
    <tripinfo id="32" depart="195.00" departLane="bottom2C0_0" departPos="5.10" departSpeed="0.00" departDelay="0.00" arrival="325.00" arrivalLane="A0bottom0_0" arrivalPos="286.40" arrivalSpeed="11.03" duration="130.00" routeLength="1197.66" waitingTime="10.00" waitingCount="1" stopTime="0.00" timeLoss="24.42" rerouteNo="0" devices="tripinfo_32" vType="DEFAULT_VEHTYPE" speedFactor="0.83" vaporized=""/>
    <tripinfo id="40" depart="228.00" departLane="top3D3_0" departPos="5.10" departSpeed="0.00" departDelay="0.00" arrival="328.00" arrivalLane="D2right2_0" arrivalPos="286.40" arrivalSpeed="14.26" duration="100.00" routeLength="897.72" waitingTime="22.00" waitingCount="2" stopTime="0.00" timeLoss="38.43" rerouteNo="0" devices="tripinfo_40" vType="DEFAULT_VEHTYPE" speedFactor="1.06" vaporized=""/>
    <tripinfo id="31" depart="191.00" departLane="right3D3_0" departPos="5.10" departSpeed="0.00" departDelay="0.00" arrival="339.00" arrivalLane="D0right0_0" arrivalPos="286.40" arrivalSpeed="13.68" duration="148.00" routeLength="1497.83" waitingTime="14.00" waitingCount="3" stopTime="0.00" timeLoss="38.97" rerouteNo="0" devices="tripinfo_31" vType="DEFAULT_VEHTYPE" speedFactor="1.00" vaporized=""/>
    <tripinfo id="35" depart="212.00" departLane="bottom0A0_0" departPos="5.10" departSpeed="0.00" departDelay="0.00" arrival="340.00" arrivalLane="A3left3_0" arrivalPos="286.40" arrivalSpeed="13.32" duration="128.00" routeLength="1498.06" waitingTime="0.00" waitingCount="0" stopTime="0.00" timeLoss="18.76" rerouteNo="0" devices="tripinfo_35" vType="DEFAULT_VEHTYPE" speedFactor="1.00" vaporized=""/>
    <tripinfo id="42" depart="244.00" departLane="left2A2_0" departPos="5.10" departSpeed="0.00" departDelay="0.00" arrival="343.00" arrivalLane="A3left3_0" arrivalPos="286.40" arrivalSpeed="13.23" duration="99.00" routeLength="894.86" waitingTime="22.00" waitingCount="1" stopTime="0.00" timeLoss="33.70" rerouteNo="0" devices="tripinfo_42" vType="DEFAULT_VEHTYPE" speedFactor="1.02" vaporized=""/>
    <tripinfo id="34" depart="206.00" departLane="bottom1B0_0" departPos="5.10" departSpeed="0.00" departDelay="0.00" arrival="346.00" arrivalLane="D0bottom3_0" arrivalPos="286.40" arrivalSpeed="10.76" duration="140.00" routeLength="1161.43" waitingTime="14.00" waitingCount="3" stopTime="0.00" timeLoss="37.71" rerouteNo="0" devices="tripinfo_34" vType="DEFAULT_VEHTYPE" speedFactor="0.84" vaporized=""/>
    <tripinfo id="36" depart="215.00" departLane="bottom0A0_0" departPos="5.10" departSpeed="0.00" departDelay="1.00" arrival="349.00" arrivalLane="A2left2_0" arrivalPos="286.40" arrivalSpeed="13.22" duration="134.00" routeLength="1197.89" waitingTime="29.00" waitingCount="2" stopTime="0.00" timeLoss="49.34" rerouteNo="0" devices="tripinfo_36" vType="DEFAULT_VEHTYPE" speedFactor="1.03" vaporized=""/>
    <tripinfo id="33" depart="204.00" departLane="bottom2C0_0" departPos="5.10" departSpeed="0.00" departDelay="0.00" arrival="368.00" arrivalLane="B3top1_0" arrivalPos="286.40" arrivalSpeed="14.37" duration="164.00" routeLength="1782.59" waitingTime="12.00" waitingCount="3" stopTime="0.00" timeLoss="38.32" rerouteNo="0" devices="tripinfo_33" vType="DEFAULT_VEHTYPE" speedFactor="1.03" vaporized=""/>
    <tripinfo id="54" depart="291.00" departLane="top1B3_0" departPos="5.10" departSpeed="0.00" departDelay="0.00" arrival="368.00" arrivalLane="A3top0_0" arrivalPos="286.40" arrivalSpeed="14.83" duration="77.00" routeLength="858.56" waitingTime="2.00" waitingCount="2" stopTime="0.00" timeLoss="19.56" rerouteNo="0" devices="tripinfo_54" vType="DEFAULT_VEHTYPE" speedFactor="1.10" vaporized=""/>
    <tripinfo id="39" depart="225.00" departLane="top0A3_0" departPos="5.10" departSpeed="0.00" departDelay="0.00" arrival="370.00" arrivalLane="A1left1_0" arrivalPos="286.40" arrivalSpeed="12.27" duration="145.00" routeLength="1177.07" waitingTime="29.00" waitingCount="3" stopTime="0.00" timeLoss="50.73" rerouteNo="0" devices="tripinfo_39" vType="DEFAULT_VEHTYPE" speedFactor="0.91" vaporized=""/>
    <tripinfo id="48" depart="266.00" departLane="bottom2C0_0" departPos="5.10" departSpeed="0.00" departDelay="0.00" arrival="374.00" arrivalLane="B0bottom1_0" arrivalPos="286.40" arrivalSpeed="10.81" duration="108.00" routeLength="894.86" waitingTime="14.00" waitingCount="2" stopTime="0.00" timeLoss="30.82" rerouteNo="0" devices="tripinfo_48" vType="DEFAULT_VEHTYPE" speedFactor="0.85" vaporized=""/>
    <tripinfo id="37" depart="223.00" departLane="top1B3_0" departPos="5.10" departSpeed="0.00" departDelay="0.00" arrival="378.00" arrivalLane="B0bottom1_0" arrivalPos="286.40" arrivalSpeed="14.35" duration="155.00" routeLength="1495.58" waitingTime="29.00" waitingCount="3" stopTime="0.00" timeLoss="52.85" rerouteNo="0" devices="tripinfo_37" vType="DEFAULT_VEHTYPE" speedFactor="1.05" vaporized=""/>
    <tripinfo id="29" depart="182.00" departLane="bottom1B0_0" departPos="5.10" departSpeed="0.00" departDelay="0.00" arrival="379.00" arrivalLane="D2right2_0" arrivalPos="286.40" arrivalSpeed="13.75" duration="197.00" routeLength="1780.11" waitingTime="34.00" waitingCount="4" stopTime="0.00" timeLoss="67.68" rerouteNo="0" devices="tripinfo_29" vType="DEFAULT_VEHTYPE" speedFactor="1.00" vaporized=""/>
    <tripinfo id="44" depart="251.00" departLane="left3A3_0" departPos="5.10" departSpeed="0.00" departDelay="0.00" arrival="383.00" arrivalLane="A0bottom0_0" arrivalPos="286.40" arrivalSpeed="17.07" duration="132.00" routeLength="1479.94" waitingTime="15.00" waitingCount="3" stopTime="0.00" timeLoss="46.70" rerouteNo="0" devices="tripinfo_44" vType="DEFAULT_VEHTYPE" speedFactor="1.26" vaporized=""/>
    <tripinfo id="51" depart="275.00" departLane="right3D3_0" departPos="5.10" departSpeed="0.00" departDelay="0.00" arrival="384.00" arrivalLane="B3top1_0" arrivalPos="286.40" arrivalSpeed="11.30" duration="109.00" routeLength="1177.07" waitingTime="0.00" waitingCount="0" stopTime="0.00" timeLoss="10.94" rerouteNo="0" devices="tripinfo_51" vType="DEFAULT_VEHTYPE" speedFactor="0.87" vaporized=""/>
    <tripinfo id="59" depart="305.00" departLane="left1A1_0" departPos="5.10" departSpeed="0.00" departDelay="0.00" arrival="384.00" arrivalLane="A0left0_0" arrivalPos="286.40" arrivalSpeed="12.67" duration="79.00" routeLength="858.56" waitingTime="0.00" waitingCount="0" stopTime="0.00" timeLoss="10.30" rerouteNo="0" devices="tripinfo_59" vType="DEFAULT_VEHTYPE" speedFactor="0.93" vaporized=""/>
    <tripinfo id="57" depart="298.00" departLane="left0A0_0" departPos="5.10" departSpeed="0.00" departDelay="0.00" arrival="385.00" arrivalLane="B0bottom1_0" arrivalPos="286.40" arrivalSpeed="13.91" duration="87.00" routeLength="876.90" waitingTime="9.00" waitingCount="2" stopTime="0.00" timeLoss="27.49" rerouteNo="0" devices="tripinfo_57" vType="DEFAULT_VEHTYPE" speedFactor="1.07" vaporized=""/>
    <tripinfo id="52" depart="276.00" departLane="right0D0_0" departPos="5.10" departSpeed="0.00" departDelay="0.00" arrival="388.00" arrivalLane="B0bottom1_0" arrivalPos="286.40" arrivalSpeed="13.98" duration="112.00" routeLength="1197.89" waitingTime="9.00" waitingCount="3" stopTime="0.00" timeLoss="32.03" rerouteNo="0" devices="tripinfo_52" vType="DEFAULT_VEHTYPE" speedFactor="1.09" vaporized=""/>
    <tripinfo id="38" depart="224.00" departLane="left1A1_0" departPos="5.10" departSpeed="0.00" departDelay="0.00" arrival="397.00" arrivalLane="D0bottom3_0" arrivalPos="286.40" arrivalSpeed="14.09" duration="173.00" routeLength="1780.11" waitingTime="26.00" waitingCount="2" stopTime="0.00" timeLoss="54.96" rerouteNo="0" devices="tripinfo_38" vType="DEFAULT_VEHTYPE" speedFactor="1.09" vaporized=""/>
    <tripinfo id="61" depart="308.00" departLane="bottom1B0_0" departPos="5.10" departSpeed="0.00" departDelay="0.00" arrival="407.00" arrivalLane="D0right0_0" arrivalPos="286.40" arrivalSpeed="15.09" duration="99.00" routeLength="1179.77" waitingTime="4.00" waitingCount="2" stopTime="0.00" timeLoss="22.61" rerouteNo="0" devices="tripinfo_61" vType="DEFAULT_VEHTYPE" speedFactor="1.13" vaporized=""/>
    <tripinfo id="41" depart="234.00" departLane="left1A1_0" departPos="5.10" departSpeed="0.00" departDelay="0.00" arrival="408.00" arrivalLane="A1left1_0" arrivalPos="286.40" arrivalSpeed="13.79" duration="174.00" routeLength="1748.75" waitingTime="20.00" waitingCount="5" stopTime="0.00" timeLoss="53.30" rerouteNo="0" devices="tripinfo_41" vType="DEFAULT_VEHTYPE" speedFactor="1.07" vaporized=""/>
    <tripinfo id="63" depart="314.00" departLane="bottom3D0_0" departPos="5.10" departSpeed="0.00" departDelay="0.00" arrival="408.00" arrivalLane="C0bottom2_0" arrivalPos="286.40" arrivalSpeed="14.81" duration="94.00" routeLength="894.86" waitingTime="17.00" waitingCount="2" stopTime="0.00" timeLoss="34.91" rerouteNo="0" devices="tripinfo_63" vType="DEFAULT_VEHTYPE" speedFactor="1.11" vaporized=""/>
    <tripinfo id="45" depart="258.00" departLane="left2A2_0" departPos="5.10" departSpeed="0.00" departDelay="0.00" arrival="410.00" arrivalLane="B0bottom1_0" arrivalPos="286.40" arrivalSpeed="12.67" duration="152.00" routeLength="1479.94" waitingTime="17.00" waitingCount="3" stopTime="0.00" timeLoss="39.52" rerouteNo="0" devices="tripinfo_45" vType="DEFAULT_VEHTYPE" speedFactor="0.95" vaporized=""/>
    <tripinfo id="68" depart="335.00" departLane="left1A1_0" departPos="5.10" departSpeed="0.00" departDelay="0.00" arrival="418.00" arrivalLane="A0bottom0_0" arrivalPos="286.40" arrivalSpeed="13.93" duration="83.00" routeLength="879.60" waitingTime="9.00" waitingCount="1" stopTime="0.00" timeLoss="23.43" rerouteNo="0" devices="tripinfo_68" vType="DEFAULT_VEHTYPE" speedFactor="1.09" vaporized=""/>
    <tripinfo id="47" depart="261.00" departLane="bottom2C0_0" departPos="5.10" departSpeed="0.00" departDelay="0.00" arrival="427.00" arrivalLane="C0bottom2_0" arrivalPos="286.40" arrivalSpeed="14.87" duration="166.00" routeLength="1748.75" waitingTime="16.00" waitingCount="4" stopTime="0.00" timeLoss="49.14" rerouteNo="0" devices="tripinfo_47" vType="DEFAULT_VEHTYPE" speedFactor="1.10" vaporized=""/>
    <tripinfo id="43" depart="249.00" departLane="left2A2_0" departPos="5.10" departSpeed="0.00" departDelay="0.00" arrival="440.00" arrivalLane="D1right1_0" arrivalPos="286.40" arrivalSpeed="12.83" duration="191.00" routeLength="1782.72" waitingTime="23.00" waitingCount="3" stopTime="0.00" timeLoss="53.26" rerouteNo="0" devices="tripinfo_43" vType="DEFAULT_VEHTYPE" speedFactor="0.94" vaporized=""/>
    <tripinfo id="56" depart="298.00" departLane="left1A1_0" departPos="5.10" departSpeed="0.00" departDelay="0.00" arrival="440.00" arrivalLane="D1right1_1" arrivalPos="286.40" arrivalSpeed="13.90" duration="142.00" routeLength="1495.58" waitingTime="5.00" waitingCount="1" stopTime="0.00" timeLoss="36.03" rerouteNo="0" devices="tripinfo_56" vType="DEFAULT_VEHTYPE" speedFactor="1.02" vaporized=""/>
    <tripinfo id="28" depart="181.00" departLane="bottom0A0_0" departPos="5.10" departSpeed="0.00" departDelay="0.00" arrival="441.00" arrivalLane="D3top3_0" arrivalPos="286.40" arrivalSpeed="11.90" duration="260.00" routeLength="2382.93" waitingTime="35.00" waitingCount="4" stopTime="0.00" timeLoss="76.79" rerouteNo="0" devices="tripinfo_28" vType="DEFAULT_VEHTYPE" speedFactor="0.94" vaporized=""/>
    <tripinfo id="50" depart="273.00" departLane="top3D3_0" departPos="5.10" departSpeed="0.00" departDelay="0.00" arrival="442.00" arrivalLane="D0bottom3_0" arrivalPos="286.40" arrivalSpeed="11.84" duration="169.00" routeLength="1495.58" waitingTime="24.00" waitingCount="3" stopTime="0.00" timeLoss="47.77" rerouteNo="0" devices="tripinfo_50" vType="DEFAULT_VEHTYPE" speedFactor="0.89" vaporized=""/>
    <tripinfo id="69" depart="339.00" departLane="bottom0A0_0" departPos="5.10" departSpeed="0.00" departDelay="0.00" arrival="444.00" arrivalLane="D0bottom3_0" arrivalPos="286.40" arrivalSpeed="16.65" duration="105.00" routeLength="1461.60" waitingTime="1.00" waitingCount="1" stopTime="0.00" timeLoss="18.15" rerouteNo="0" devices="tripinfo_69" vType="DEFAULT_VEHTYPE" speedFactor="1.23" vaporized=""/>
    <tripinfo id="67" depart="324.00" departLane="right3D3_0" departPos="5.10" departSpeed="0.00" departDelay="0.00" arrival="447.00" arrivalLane="A3left3_0" arrivalPos="286.40" arrivalSpeed="15.02" duration="123.00" routeLength="1495.58" waitingTime="7.00" waitingCount="1" stopTime="0.00" timeLoss="27.44" rerouteNo="0" devices="tripinfo_67" vType="DEFAULT_VEHTYPE" speedFactor="1.13" vaporized=""/>
    <tripinfo id="65" depart="317.00" departLane="top3D3_0" departPos="5.10" departSpeed="0.00" departDelay="0.00" arrival="450.00" arrivalLane="A3left3_0" arrivalPos="286.40" arrivalSpeed="14.11" duration="133.00" routeLength="1479.94" waitingTime="10.00" waitingCount="2" stopTime="0.00" timeLoss="30.77" rerouteNo="0" devices="tripinfo_65" vType="DEFAULT_VEHTYPE" speedFactor="1.05" vaporized=""/>
    <tripinfo id="71" depart="344.00" departLane="right1D1_0" departPos="5.10" departSpeed="0.00" departDelay="0.00" arrival="450.00" arrivalLane="D0right0_0" arrivalPos="286.40" arrivalSpeed="13.68" duration="106.00" routeLength="894.86" waitingTime="22.00" waitingCount="2" stopTime="0.00" timeLoss="39.29" rerouteNo="0" devices="tripinfo_71" vType="DEFAULT_VEHTYPE" speedFactor="0.99" vaporized=""/>
    <tripinfo id="55" depart="295.00" departLane="bottom2C0_0" departPos="5.10" departSpeed="0.00" departDelay="0.00" arrival="452.00" arrivalLane="C3top2_0" arrivalPos="286.40" arrivalSpeed="11.03" duration="157.00" routeLength="1495.58" waitingTime="11.00" waitingCount="2" stopTime="0.00" timeLoss="32.85" rerouteNo="0" devices="tripinfo_55" vType="DEFAULT_VEHTYPE" speedFactor="0.87" vaporized=""/>
    <tripinfo id="46" depart="260.00" departLane="top2C3_0" departPos="5.10" departSpeed="0.00" departDelay="0.00" arrival="459.00" arrivalLane="A1left1_0" arrivalPos="286.40" arrivalSpeed="13.19" duration="199.00" routeLength="1780.11" waitingTime="40.00" waitingCount="4" stopTime="0.00" timeLoss="73.16" rerouteNo="0" devices="tripinfo_46" vType="DEFAULT_VEHTYPE" speedFactor="1.03" vaporized=""/>
    <tripinfo id="49" depart="266.00" departLane="left3A3_0" departPos="5.10" departSpeed="0.00" departDelay="0.00" arrival="461.00" arrivalLane="A3left3_0" arrivalPos="286.40" arrivalSpeed="12.18" duration="195.00" routeLength="1748.75" waitingTime="27.00" waitingCount="3" stopTime="0.00" timeLoss="59.22" rerouteNo="0" devices="tripinfo_49" vType="DEFAULT_VEHTYPE" speedFactor="0.95" vaporized=""/>
    <tripinfo id="60" depart="308.00" departLane="left1A1_0" departPos="5.10" departSpeed="0.00" departDelay="1.00" arrival="468.00" arrivalLane="D2right2_0" arrivalPos="286.40" arrivalSpeed="13.99" duration="160.00" routeLength="1782.59" waitingTime="16.00" waitingCount="2" stopTime="0.00" timeLoss="36.62" rerouteNo="0" devices="tripinfo_60" vType="DEFAULT_VEHTYPE" speedFactor="1.05" vaporized=""/>
    <tripinfo id="64" depart="315.00" departLane="right2D2_0" departPos="5.10" departSpeed="0.00" departDelay="0.00" arrival="468.00" arrivalLane="A2left2_0" arrivalPos="286.40" arrivalSpeed="14.59" duration="153.00" routeLength="1495.58" waitingTime="26.00" waitingCount="3" stopTime="0.00" timeLoss="50.97" rerouteNo="0" devices="tripinfo_64" vType="DEFAULT_VEHTYPE" speedFactor="1.06" vaporized=""/>
    <tripinfo id="58" depart="301.00" departLane="top3D3_0" departPos="5.10" departSpeed="0.00" departDelay="0.00" arrival="480.00" arrivalLane="C0bottom2_0" arrivalPos="286.40" arrivalSpeed="11.88" duration="179.00" routeLength="1782.72" waitingTime="12.00" waitingCount="4" stopTime="0.00" timeLoss="41.70" rerouteNo="0" devices="tripinfo_58" vType="DEFAULT_VEHTYPE" speedFactor="0.94" vaporized=""/>
    <tripinfo id="70" depart="340.00" departLane="left3A3_0" departPos="5.10" departSpeed="0.00" departDelay="0.00" arrival="480.00" arrivalLane="B0bottom1_0" arrivalPos="286.40" arrivalSpeed="15.26" duration="140.00" routeLength="1780.11" waitingTime="5.00" waitingCount="1" stopTime="0.00" timeLoss="23.26" rerouteNo="0" devices="tripinfo_70" vType="DEFAULT_VEHTYPE" speedFactor="1.11" vaporized=""/>
    <tripinfo id="74" depart="362.00" departLane="right2D2_0" departPos="5.10" departSpeed="0.00" departDelay="0.00" arrival="488.00" arrivalLane="D0right0_0" arrivalPos="286.40" arrivalSpeed="13.69" duration="126.00" routeLength="1197.66" waitingTime="21.00" waitingCount="3" stopTime="0.00" timeLoss="43.39" rerouteNo="0" devices="tripinfo_74" vType="DEFAULT_VEHTYPE" speedFactor="1.06" vaporized=""/>
    <tripinfo id="79" depart="391.00" departLane="right3D3_0" departPos="5.10" departSpeed="0.00" departDelay="0.00" arrival="504.00" arrivalLane="B3top1_0" arrivalPos="286.40" arrivalSpeed="12.54" duration="113.00" routeLength="1177.07" waitingTime="5.00" waitingCount="2" stopTime="0.00" timeLoss="25.98" rerouteNo="0" devices="tripinfo_79" vType="DEFAULT_VEHTYPE" speedFactor="0.98" vaporized=""/>