<?xml version="1.0" encoding="UTF-8"?>

<!-- generated on 12/19/21 10:47:10 by Eclipse SUMO sumo Version 1.7.0
<configuration xmlns:xsi="http://www.w3.org/2001/XMLSchema-instance" xsi:noNamespaceSchemaLocation="http://sumo.dlr.de/xsd/sumoConfiguration.xsd">

    <input>
        <net-file value="C:\Users\longs\Desktop\RESCO-main\environments\grid4x4\grid4x4.net.xml"/>
        <route-files value="C:\Users\longs\Desktop\RESCO-main\environments\grid4x4\grid4x4_2.rou.xml"/>
    </input>

    <output>
        <tripinfo-output value="C:\Users\longs\Desktop\RESCO-main\logs\IDQN-tr1-grid4x4-0-drqlong-delaydiff_pressure01\tripinfo_2.xml"/>
        <tripinfo-output.write-unfinished value="true"/>
    </output>

    <processing>
        <time-to-teleport value="-1"/>
    </processing>

    <report>
        <no-warnings value="true"/>
        <no-step-log value="true"/>
    </report>

    <traci_server>
        <remote-port value="58749"/>
    </traci_server>

    <random_number>
        <random value="true"/>
    </random_number>

</configuration>
-->

<tripinfos xmlns:xsi="http://www.w3.org/2001/XMLSchema-instance" xsi:noNamespaceSchemaLocation="http://sumo.dlr.de/xsd/tripinfo_file.xsd">
    <tripinfo id="4" depart="19.00" departLane="right0D0_0" departPos="5.10" departSpeed="0.00" departDelay="0.00" arrival="98.00" arrivalLane="D1right1_0" arrivalPos="286.40" arrivalSpeed="14.11" duration="79.00" routeLength="858.56" waitingTime="2.00" waitingCount="2" stopTime="0.00" timeLoss="20.02" rerouteNo="0" devices="tripinfo_4" vType="DEFAULT_VEHTYPE" speedFactor="1.07" vaporized=""/>
    <tripinfo id="6" depart="24.00" departLane="bottom3D0_0" departPos="5.10" departSpeed="0.00" departDelay="0.00" arrival="131.00" arrivalLane="D1right1_0" arrivalPos="286.40" arrivalSpeed="11.87" duration="107.00" routeLength="876.90" waitingTime="18.00" waitingCount="2" stopTime="0.00" timeLoss="35.78" rerouteNo="0" devices="tripinfo_6" vType="DEFAULT_VEHTYPE" speedFactor="0.90" vaporized=""/>
    <tripinfo id="0" depart="1.00" departLane="left1A1_0" departPos="5.10" departSpeed="0.00" departDelay="0.00" arrival="159.00" arrivalLane="A0bottom0_0" arrivalPos="286.40" arrivalSpeed="13.13" duration="158.00" routeLength="879.60" waitingTime="78.00" waitingCount="2" stopTime="0.00" timeLoss="95.97" rerouteNo="0" devices="tripinfo_0" vType="DEFAULT_VEHTYPE" speedFactor="1.03" vaporized=""/>
    <tripinfo id="1" depart="6.00" departLane="right0D0_0" departPos="5.10" departSpeed="0.00" departDelay="0.00" arrival="189.00" arrivalLane="D3top3_0" arrivalPos="286.40" arrivalSpeed="13.05" duration="183.00" routeLength="1479.94" waitingTime="48.00" waitingCount="2" stopTime="0.00" timeLoss="74.71" rerouteNo="0" devices="tripinfo_1" vType="DEFAULT_VEHTYPE" speedFactor="0.99" vaporized=""/>
    <tripinfo id="3" depart="11.00" departLane="top2C3_0" departPos="5.10" departSpeed="0.00" departDelay="0.00" arrival="202.00" arrivalLane="A1left1_0" arrivalPos="286.40" arrivalSpeed="13.16" duration="191.00" routeLength="1780.11" waitingTime="29.00" waitingCount="3" stopTime="0.00" timeLoss="62.19" rerouteNo="0" devices="tripinfo_3" vType="DEFAULT_VEHTYPE" speedFactor="1.00" vaporized=""/>
    <tripinfo id="8" depart="39.00" departLane="top1B3_0" departPos="5.10" departSpeed="0.00" departDelay="0.00" arrival="210.00" arrivalLane="C3top2_0" arrivalPos="286.40" arrivalSpeed="12.59" duration="171.00" routeLength="894.86" waitingTime="87.00" waitingCount="2" stopTime="0.00" timeLoss="103.86" rerouteNo="0" devices="tripinfo_8" vType="DEFAULT_VEHTYPE" speedFactor="0.98" vaporized=""/>
    <tripinfo id="27" depart="156.00" departLane="right3D3_0" departPos="5.10" departSpeed="0.00" departDelay="0.00" arrival="212.00" arrivalLane="D3top3_0" arrivalPos="286.40" arrivalSpeed="12.52" duration="56.00" routeLength="576.73" waitingTime="1.00" waitingCount="1" stopTime="0.00" timeLoss="10.55" rerouteNo="0" devices="tripinfo_27" vType="DEFAULT_VEHTYPE" speedFactor="0.93" vaporized=""/>
    <tripinfo id="22" depart="136.00" departLane="top3D3_0" departPos="5.10" departSpeed="0.00" departDelay="0.00" arrival="221.00" arrivalLane="C3top2_0" arrivalPos="286.40" arrivalSpeed="12.11" duration="85.00" routeLength="858.56" waitingTime="2.00" waitingCount="2" stopTime="0.00" timeLoss="17.72" rerouteNo="0" devices="tripinfo_22" vType="DEFAULT_VEHTYPE" speedFactor="0.94" vaporized=""/>
    <tripinfo id="13" depart="96.00" departLane="top2C3_0" departPos="5.10" departSpeed="0.00" departDelay="0.00" arrival="248.00" arrivalLane="A3left3_0" arrivalPos="286.40" arrivalSpeed="14.29" duration="152.00" routeLength="1179.77" waitingTime="49.00" waitingCount="2" stopTime="0.00" timeLoss="70.07" rerouteNo="0" devices="tripinfo_13" vType="DEFAULT_VEHTYPE" speedFactor="1.05" vaporized=""/>
    <tripinfo id="14" depart="99.00" departLane="top2C3_0" departPos="5.10" departSpeed="0.00" departDelay="3.00" arrival="252.00" arrivalLane="A3left3_0" arrivalPos="286.40" arrivalSpeed="12.90" duration="153.00" routeLength="1179.77" waitingTime="44.00" waitingCount="2" stopTime="0.00" timeLoss="66.72" rerouteNo="0" devices="tripinfo_14" vType="DEFAULT_VEHTYPE" speedFactor="1.00" vaporized=""/>
    <tripinfo id="11" depart="82.00" departLane="left3A3_0" departPos="5.10" departSpeed="0.00" departDelay="0.00" arrival="253.00" arrivalLane="D3top3_0" arrivalPos="286.40" arrivalSpeed="13.36" duration="171.00" routeLength="1498.06" waitingTime="41.00" waitingCount="2" stopTime="0.00" timeLoss="61.60" rerouteNo="0" devices="tripinfo_11" vType="DEFAULT_VEHTYPE" speedFactor="0.99" vaporized=""/>
    <tripinfo id="2" depart="9.00" departLane="top1B3_0" departPos="5.10" departSpeed="0.00" departDelay="0.00" arrival="259.00" arrivalLane="A0bottom0_0" arrivalPos="286.40" arrivalSpeed="13.89" duration="250.00" routeLength="1782.72" waitingTime="89.00" waitingCount="4" stopTime="0.00" timeLoss="125.66" rerouteNo="0" devices="tripinfo_2" vType="DEFAULT_VEHTYPE" speedFactor="1.05" vaporized=""/>
    <tripinfo id="21" depart="135.00" departLane="right3D3_0" departPos="5.10" departSpeed="0.00" departDelay="0.00" arrival="264.00" arrivalLane="D0right0_0" arrivalPos="286.40" arrivalSpeed="17.92" duration="129.00" routeLength="1497.83" waitingTime="27.00" waitingCount="2" stopTime="0.00" timeLoss="47.25" rerouteNo="0" devices="tripinfo_21" vType="DEFAULT_VEHTYPE" speedFactor="1.33" vaporized=""/>
    <tripinfo id="7" depart="27.00" departLane="left1A1_0" departPos="5.10" departSpeed="0.00" departDelay="0.00" arrival="271.00" arrivalLane="A3top0_0" arrivalPos="286.40" arrivalSpeed="12.07" duration="244.00" routeLength="1195.18" waitingTime="130.00" waitingCount="2" stopTime="0.00" timeLoss="148.44" rerouteNo="0" devices="tripinfo_7" vType="DEFAULT_VEHTYPE" speedFactor="0.92" vaporized=""/>
    <tripinfo id="35" depart="186.00" departLane="left1A1_0" departPos="5.10" departSpeed="0.00" departDelay="0.00" arrival="289.00" arrivalLane="A3left3_0" arrivalPos="286.40" arrivalSpeed="13.62" duration="103.00" routeLength="1197.66" waitingTime="0.00" waitingCount="0" stopTime="0.00" timeLoss="15.09" rerouteNo="0" devices="tripinfo_35" vType="DEFAULT_VEHTYPE" speedFactor="1.00" vaporized=""/>
    <tripinfo id="18" depart="129.00" departLane="bottom0A0_0" departPos="5.10" departSpeed="0.00" departDelay="0.00" arrival="307.00" arrivalLane="D0right0_0" arrivalPos="286.40" arrivalSpeed="14.48" duration="178.00" routeLength="1479.94" waitingTime="54.00" waitingCount="3" stopTime="0.00" timeLoss="77.55" rerouteNo="0" devices="tripinfo_18" vType="DEFAULT_VEHTYPE" speedFactor="1.07" vaporized=""/>
    <tripinfo id="25" depart="153.00" departLane="top0A3_0" departPos="5.10" departSpeed="0.00" departDelay="0.00" arrival="310.00" arrivalLane="A3top0_1" arrivalPos="286.40" arrivalSpeed="15.31" duration="157.00" routeLength="1745.91" waitingTime="16.00" waitingCount="3" stopTime="0.00" timeLoss="41.32" rerouteNo="0" devices="tripinfo_25" vType="DEFAULT_VEHTYPE" speedFactor="1.11" vaporized=""/>
    <tripinfo id="30" depart="175.00" departLane="bottom1B0_0" departPos="5.10" departSpeed="0.00" departDelay="0.00" arrival="311.00" arrivalLane="D0right0_0" arrivalPos="286.40" arrivalSpeed="13.12" duration="136.00" routeLength="1179.77" waitingTime="30.00" waitingCount="3" stopTime="0.00" timeLoss="51.19" rerouteNo="0" devices="tripinfo_30" vType="DEFAULT_VEHTYPE" speedFactor="1.02" vaporized=""/>
    <tripinfo id="43" depart="220.00" departLane="left2A2_0" departPos="5.10" departSpeed="0.00" departDelay="0.00" arrival="312.00" arrivalLane="A3top0_0" arrivalPos="286.40" arrivalSpeed="11.11" duration="92.00" routeLength="895.01" waitingTime="0.00" waitingCount="0" stopTime="0.00" timeLoss="12.69" rerouteNo="0" devices="tripinfo_43" vType="DEFAULT_VEHTYPE" speedFactor="0.82" vaporized=""/>
    <tripinfo id="36" depart="195.00" departLane="bottom1B0_0" departPos="5.10" departSpeed="0.00" departDelay="0.00" arrival="317.00" arrivalLane="D0right0_0" arrivalPos="286.40" arrivalSpeed="11.88" duration="122.00" routeLength="1179.77" waitingTime="8.00" waitingCount="2" stopTime="0.00" timeLoss="26.54" rerouteNo="0" devices="tripinfo_36" vType="DEFAULT_VEHTYPE" speedFactor="0.90" vaporized=""/>
    <tripinfo id="10" depart="69.00" departLane="bottom2C0_0" departPos="5.10" departSpeed="0.00" departDelay="0.00" arrival="320.00" arrivalLane="C0bottom2_0" arrivalPos="286.40" arrivalSpeed="12.82" duration="251.00" routeLength="1748.75" waitingTime="84.00" waitingCount="5" stopTime="0.00" timeLoss="119.25" rerouteNo="0" devices="tripinfo_10" vType="DEFAULT_VEHTYPE" speedFactor="0.97" vaporized=""/>
    <tripinfo id="52" depart="254.00" departLane="top3D3_0" departPos="5.10" departSpeed="0.00" departDelay="0.00" arrival="321.00" arrivalLane="D3right3_0" arrivalPos="286.40" arrivalSpeed="12.42" duration="67.00" routeLength="597.55" waitingTime="8.00" waitingCount="1" stopTime="0.00" timeLoss="19.79" rerouteNo="0" devices="tripinfo_52" vType="DEFAULT_VEHTYPE" speedFactor="0.92" vaporized=""/>
    <tripinfo id="24" depart="147.00" departLane="right3D3_0" departPos="5.10" departSpeed="0.00" departDelay="0.00" arrival="324.00" arrivalLane="D1right1_0" arrivalPos="286.40" arrivalSpeed="13.08" duration="177.00" routeLength="1197.66" waitingTime="72.00" waitingCount="1" stopTime="0.00" timeLoss="85.53" rerouteNo="0" devices="tripinfo_24" vType="DEFAULT_VEHTYPE" speedFactor="0.96" vaporized=""/>
    <tripinfo id="42" depart="216.00" departLane="bottom0A0_0" departPos="5.10" departSpeed="0.00" departDelay="0.00" arrival="332.00" arrivalLane="D0bottom3_0" arrivalPos="286.40" arrivalSpeed="15.33" duration="116.00" routeLength="1461.60" waitingTime="1.00" waitingCount="1" stopTime="0.00" timeLoss="21.36" rerouteNo="0" devices="tripinfo_42" vType="DEFAULT_VEHTYPE" speedFactor="1.12" vaporized=""/>
    <tripinfo id="48" depart="245.00" departLane="top1B3_0" departPos="5.10" departSpeed="0.00" departDelay="0.00" arrival="341.00" arrivalLane="A2left2_1" arrivalPos="286.40" arrivalSpeed="13.01" duration="96.00" routeLength="1179.77" waitingTime="0.00" waitingCount="0" stopTime="0.00" timeLoss="9.25" rerouteNo="0" devices="tripinfo_48" vType="DEFAULT_VEHTYPE" speedFactor="0.99" vaporized=""/>
    <tripinfo id="5" depart="20.00" departLane="right3D3_0" departPos="5.10" departSpeed="0.00" departDelay="0.00" arrival="344.00" arrivalLane="A2left2_0" arrivalPos="286.40" arrivalSpeed="11.08" duration="324.00" routeLength="1782.59" waitingTime="130.00" waitingCount="4" stopTime="0.00" timeLoss="162.61" rerouteNo="0" devices="tripinfo_5" vType="DEFAULT_VEHTYPE" speedFactor="0.80" vaporized=""/>
    <tripinfo id="58" depart="279.00" departLane="left1A1_0" departPos="5.10" departSpeed="0.00" departDelay="0.00" arrival="351.00" arrivalLane="A0left0_0" arrivalPos="286.40" arrivalSpeed="15.27" duration="72.00" routeLength="858.56" waitingTime="1.00" waitingCount="1" stopTime="0.00" timeLoss="15.29" rerouteNo="0" devices="tripinfo_58" vType="DEFAULT_VEHTYPE" speedFactor="1.11" vaporized=""/>
    <tripinfo id="20" depart="133.00" departLane="left3A3_0" departPos="5.10" departSpeed="0.00" departDelay="0.00" arrival="352.00" arrivalLane="D3top3_0" arrivalPos="286.40" arrivalSpeed="12.35" duration="219.00" routeLength="1498.06" waitingTime="80.00" waitingCount="2" stopTime="0.00" timeLoss="98.60" rerouteNo="0" devices="tripinfo_20" vType="DEFAULT_VEHTYPE" speedFactor="0.90" vaporized=""/>
    <tripinfo id="9" depart="52.00" departLane="right0D0_0" departPos="5.10" departSpeed="0.00" departDelay="0.00" arrival="360.00" arrivalLane="A2left2_1" arrivalPos="286.40" arrivalSpeed="13.70" duration="308.00" routeLength="2082.76" waitingTime="130.00" waitingCount="5" stopTime="0.00" timeLoss="167.11" rerouteNo="0" devices="tripinfo_9" vType="DEFAULT_VEHTYPE" speedFactor="1.07" vaporized=""/>
    <tripinfo id="46" depart="229.00" departLane="left1A1_0" departPos="5.10" departSpeed="0.00" departDelay="0.00" arrival="360.00" arrivalLane="A2left2_0" arrivalPos="286.40" arrivalSpeed="13.26" duration="131.00" routeLength="894.86" waitingTime="47.00" waitingCount="2" stopTime="0.00" timeLoss="62.93" rerouteNo="0" devices="tripinfo_46" vType="DEFAULT_VEHTYPE" speedFactor="0.96" vaporized=""/>
    <tripinfo id="57" depart="278.00" departLane="top3D3_0" departPos="5.10" departSpeed="0.00" departDelay="0.00" arrival="360.00" arrivalLane="D2right2_0" arrivalPos="286.40" arrivalSpeed="13.38" duration="82.00" routeLength="897.72" waitingTime="6.00" waitingCount="1" stopTime="0.00" timeLoss="15.41" rerouteNo="0" devices="tripinfo_57" vType="DEFAULT_VEHTYPE" speedFactor="0.99" vaporized=""/>
    <tripinfo id="17" depart="111.00" departLane="left1A1_0" departPos="5.10" departSpeed="0.00" departDelay="0.00" arrival="368.00" arrivalLane="C0bottom2_0" arrivalPos="286.40" arrivalSpeed="13.78" duration="257.00" routeLength="1479.94" waitingTime="124.00" waitingCount="4" stopTime="0.00" timeLoss="151.46" rerouteNo="0" devices="tripinfo_17" vType="DEFAULT_VEHTYPE" speedFactor="1.01" vaporized=""/>
    <tripinfo id="26" depart="155.00" departLane="left1A1_0" departPos="5.10" departSpeed="0.00" departDelay="0.00" arrival="369.00" arrivalLane="B0bottom1_0" arrivalPos="286.40" arrivalSpeed="12.55" duration="214.00" routeLength="1179.77" waitingTime="103.00" waitingCount="3" stopTime="0.00" timeLoss="126.93" rerouteNo="0" devices="tripinfo_26" vType="DEFAULT_VEHTYPE" speedFactor="0.98" vaporized=""/>
    <tripinfo id="38" depart="200.00" departLane="left2A2_0" departPos="5.10" departSpeed="0.00" departDelay="0.00" arrival="372.00" arrivalLane="D2right2_0" arrivalPos="286.40" arrivalSpeed="12.96" duration="172.00" routeLength="1495.58" waitingTime="45.00" waitingCount="2" stopTime="0.00" timeLoss="62.46" rerouteNo="0" devices="tripinfo_38" vType="DEFAULT_VEHTYPE" speedFactor="0.99" vaporized=""/>
    <tripinfo id="31" depart="177.00" departLane="bottom2C0_0" departPos="5.10" departSpeed="0.00" departDelay="0.00" arrival="376.00" arrivalLane="A2left2_0" arrivalPos="286.40" arrivalSpeed="16.30" duration="199.00" routeLength="1795.52" waitingTime="62.00" waitingCount="3" stopTime="0.00" timeLoss="88.16" rerouteNo="0" devices="tripinfo_31" vType="DEFAULT_VEHTYPE" speedFactor="1.18" vaporized=""/>
    <tripinfo id="37" depart="199.00" departLane="bottom1B0_0" departPos="5.10" departSpeed="0.00" departDelay="0.00" arrival="378.00" arrivalLane="A2left2_0" arrivalPos="286.40" arrivalSpeed="14.74" duration="179.00" routeLength="1495.35" waitingTime="59.00" waitingCount="3" stopTime="0.00" timeLoss="84.18" rerouteNo="0" devices="tripinfo_37" vType="DEFAULT_VEHTYPE" speedFactor="1.14" vaporized=""/>
    <tripinfo id="32" depart="180.00" departLane="bottom1B0_0" departPos="5.10" departSpeed="0.00" departDelay="0.00" arrival="379.00" arrivalLane="B0bottom1_0" arrivalPos="286.40" arrivalSpeed="13.46" duration="199.00" routeLength="1748.75" waitingTime="38.00" waitingCount="4" stopTime="0.00" timeLoss="71.63" rerouteNo="0" devices="tripinfo_32" vType="DEFAULT_VEHTYPE" speedFactor="1.01" vaporized=""/>
    <tripinfo id="28" depart="161.00" departLane="right1D1_0" departPos="5.10" departSpeed="0.00" departDelay="0.00" arrival="398.00" arrivalLane="A2left2_0" arrivalPos="286.40" arrivalSpeed="11.97" duration="237.00" routeLength="1782.72" waitingTime="82.00" waitingCount="2" stopTime="0.00" timeLoss="100.37" rerouteNo="0" devices="tripinfo_28" vType="DEFAULT_VEHTYPE" speedFactor="0.95" vaporized=""/>
    <tripinfo id="71" depart="318.00" departLane="bottom3D0_0" departPos="5.10" departSpeed="0.00" departDelay="0.00" arrival="402.00" arrivalLane="D1right1_0" arrivalPos="286.40" arrivalSpeed="15.30" duration="84.00" routeLength="876.90" waitingTime="10.00" waitingCount="2" stopTime="0.00" timeLoss="26.98" rerouteNo="0" devices="tripinfo_71" vType="DEFAULT_VEHTYPE" speedFactor="1.13" vaporized=""/>
    <tripinfo id="67" depart="298.00" departLane="top1B3_0" departPos="5.10" departSpeed="0.00" departDelay="0.00" arrival="407.00" arrivalLane="D3top3_0" arrivalPos="286.40" arrivalSpeed="14.88" duration="109.00" routeLength="1197.66" waitingTime="14.00" waitingCount="1" stopTime="0.00" timeLoss="29.98" rerouteNo="0" devices="tripinfo_67" vType="DEFAULT_VEHTYPE" speedFactor="1.11" vaporized=""/>
    <tripinfo id="19" depart="132.00" departLane="bottom0A0_0" departPos="5.10" departSpeed="0.00" departDelay="1.00" arrival="408.00" arrivalLane="A3top0_0" arrivalPos="286.40" arrivalSpeed="14.40" duration="276.00" routeLength="1495.58" waitingTime="144.00" waitingCount="4" stopTime="0.00" timeLoss="176.84" rerouteNo="0" devices="tripinfo_19" vType="DEFAULT_VEHTYPE" speedFactor="1.09" vaporized=""/>
    <tripinfo id="63" depart="292.00" departLane="right0D0_0" departPos="5.10" departSpeed="0.00" departDelay="0.00" arrival="410.00" arrivalLane="D2right2_0" arrivalPos="286.40" arrivalSpeed="11.20" duration="118.00" routeLength="1161.43" waitingTime="3.00" waitingCount="3" stopTime="0.00" timeLoss="22.58" rerouteNo="0" devices="tripinfo_63" vType="DEFAULT_VEHTYPE" speedFactor="0.89" vaporized=""/>
    <tripinfo id="65" depart="293.00" departLane="top1B3_0" departPos="5.10" departSpeed="0.00" departDelay="0.00" arrival="440.00" arrivalLane="D2right2_0" arrivalPos="286.40" arrivalSpeed="12.54" duration="147.00" routeLength="1495.35" waitingTime="12.00" waitingCount="3" stopTime="0.00" timeLoss="35.50" rerouteNo="0" devices="tripinfo_65" vType="DEFAULT_VEHTYPE" speedFactor="0.98" vaporized=""/>
    <tripinfo id="84" depart="379.00" departLane="right2D2_0" departPos="5.10" departSpeed="0.00" departDelay="0.00" arrival="455.00" arrivalLane="D3right3_0" arrivalPos="286.40" arrivalSpeed="12.83" duration="76.00" routeLength="858.56" waitingTime="0.00" waitingCount="0" stopTime="0.00" timeLoss="8.30" rerouteNo="0" devices="tripinfo_84" vType="DEFAULT_VEHTYPE" speedFactor="0.94" vaporized=""/>
    <tripinfo id="89" depart="396.00" departLane="bottom3D0_0" departPos="5.10" departSpeed="0.00" departDelay="0.00" arrival="457.00" arrivalLane="D0right0_0" arrivalPos="286.40" arrivalSpeed="11.16" duration="61.00" routeLength="576.73" waitingTime="1.00" waitingCount="1" stopTime="0.00" timeLoss="9.93" rerouteNo="0" devices="tripinfo_89" vType="DEFAULT_VEHTYPE" speedFactor="0.83" vaporized=""/>
    <tripinfo id="41" depart="215.00" departLane="bottom1B0_0" departPos="5.10" departSpeed="0.00" departDelay="0.00" arrival="477.00" arrivalLane="D1right1_0" arrivalPos="286.40" arrivalSpeed="14.14" duration="262.00" routeLength="1479.94" waitingTime="140.00" waitingCount="3" stopTime="0.00" timeLoss="163.16" rerouteNo="0" devices="tripinfo_41" vType="DEFAULT_VEHTYPE" speedFactor="1.09" vaporized=""/>
    <tripinfo id="76" depart="344.00" departLane="left3A3_0" departPos="5.10" departSpeed="0.00" departDelay="0.00" arrival="477.00" arrivalLane="B3top1_0" arrivalPos="286.40" arrivalSpeed="12.70" duration="133.00" routeLength="897.72" waitingTime="50.00" waitingCount="1" stopTime="0.00" timeLoss="61.58" rerouteNo="0" devices="tripinfo_76" vType="DEFAULT_VEHTYPE" speedFactor="0.92" vaporized=""/>
    <tripinfo id="70" depart="316.00" departLane="bottom1B0_0" departPos="5.10" departSpeed="0.00" departDelay="0.00" arrival="482.00" arrivalLane="D0bottom3_0" arrivalPos="286.40" arrivalSpeed="12.66" duration="166.00" routeLength="1161.43" waitingTime="50.00" waitingCount="3" stopTime="0.00" timeLoss="74.20" rerouteNo="0" devices="tripinfo_70" vType="DEFAULT_VEHTYPE" speedFactor="0.93" vaporized=""/>
    <tripinfo id="66" depart="298.00" departLane="left1A1_0" departPos="5.10" departSpeed="0.00" departDelay="0.00" arrival="490.00" arrivalLane="C0bottom2_0" arrivalPos="286.40" arrivalSpeed="12.67" duration="192.00" routeLength="1479.94" waitingTime="55.00" waitingCount="3" stopTime="0.00" timeLoss="79.60" rerouteNo="0" devices="tripinfo_66" vType="DEFAULT_VEHTYPE" speedFactor="0.96" vaporized=""/>
    <tripinfo id="33" depart="181.00" departLane="bottom3D0_0" departPos="5.10" departSpeed="0.00" departDelay="0.00" arrival="497.00" arrivalLane="A2left2_0" arrivalPos="286.40" arrivalSpeed="14.53" duration="316.00" routeLength="2095.69" waitingTime="137.00" waitingCount="4" stopTime="0.00" timeLoss="176.21" rerouteNo="0" devices="tripinfo_33" vType="DEFAULT_VEHTYPE" speedFactor="1.09" vaporized=""/>
    <tripinfo id="98" depart="425.00" departLane="left0A0_0" departPos="5.10" departSpeed="0.00" departDelay="0.00" arrival="497.00" arrivalLane="B0bottom1_0" arrivalPos="286.40" arrivalSpeed="14.48" duration="72.00" routeLength="876.90" waitingTime="1.00" waitingCount="1" stopTime="0.00" timeLoss="13.20" rerouteNo="0" devices="tripinfo_98" vType="DEFAULT_VEHTYPE" speedFactor="1.08" vaporized=""/>
    <tripinfo id="53" depart="257.00" departLane="right1D1_0" departPos="5.10" departSpeed="0.00" departDelay="0.00" arrival="500.00" arrivalLane="A2left2_0" arrivalPos="286.40" arrivalSpeed="13.15" duration="243.00" routeLength="1782.72" waitingTime="76.00" waitingCount="5" stopTime="0.00" timeLoss="116.07" rerouteNo="0" devices="tripinfo_53" vType="DEFAULT_VEHTYPE" speedFactor="1.02" vaporized=""/>
    <tripinfo id="16" depart="102.00" departLane="top2C3_0" departPos="5.10" departSpeed="0.00" departDelay="1.00" arrival="509.00" arrivalLane="D0right0_0" arrivalPos="286.40" arrivalSpeed="13.73" duration="407.00" routeLength="1795.52" waitingTime="248.00" waitingCount="4" stopTime="0.00" timeLoss="278.94" rerouteNo="0" devices="tripinfo_16" vType="DEFAULT_VEHTYPE" speedFactor="1.02" vaporized=""/>
    <tripinfo id="15" depart="100.00" departLane="right3D3_0" departPos="5.10" departSpeed="0.00" departDelay="0.00" arrival="511.00" arrivalLane="A0left0_0" arrivalPos="286.40" arrivalSpeed="13.10" duration="411.00" routeLength="2380.22" waitingTime="200.00" waitingCount="5" stopTime="0.00" timeLoss="241.93" rerouteNo="0" devices="tripinfo_15" vType="DEFAULT_VEHTYPE" speedFactor="1.03" vaporized=""/>
    <tripinfo id="39" depart="203.00" departLane="bottom1B0_0" departPos="5.10" departSpeed="0.00" departDelay="0.00" arrival="513.00" arrivalLane="D3top3_0" arrivalPos="286.40" arrivalSpeed="11.92" duration="310.00" routeLength="2082.76" waitingTime="103.00" waitingCount="4" stopTime="0.00" timeLoss="138.75" rerouteNo="0" devices="tripinfo_39" vType="DEFAULT_VEHTYPE" speedFactor="0.88" vaporized=""/>
    <tripinfo id="78" depart="368.00" departLane="top0A3_0" departPos="5.10" departSpeed="0.00" departDelay="0.00" arrival="516.00" arrivalLane="D3top3_0" arrivalPos="286.40" arrivalSpeed="12.07" duration="148.00" routeLength="1497.83" waitingTime="9.00" waitingCount="2" stopTime="0.00" timeLoss="33.04" rerouteNo="0" devices="tripinfo_78" vType="DEFAULT_VEHTYPE" speedFactor="0.95" vaporized=""/>
    <tripinfo id="59" depart="281.00" departLane="right2D2_0" departPos="5.10" departSpeed="0.00" departDelay="0.00" arrival="517.00" arrivalLane="A0left0_0" arrivalPos="286.40" arrivalSpeed="12.69" duration="236.00" routeLength="2080.05" waitingTime="50.00" waitingCount="3" stopTime="0.00" timeLoss="79.63" rerouteNo="0" devices="tripinfo_59" vType="DEFAULT_VEHTYPE" speedFactor="0.97" vaporized=""/>
    <tripinfo id="80" depart="370.00" departLane="top2C3_0" departPos="5.10" departSpeed="0.00" departDelay="0.00" arrival="524.00" arrivalLane="C3top2_0" arrivalPos="286.40" arrivalSpeed="11.95" duration="154.00" routeLength="1748.75" waitingTime="0.00" waitingCount="0" stopTime="0.00" timeLoss="18.39" rerouteNo="0" devices="tripinfo_80" vType="DEFAULT_VEHTYPE" speedFactor="0.94" vaporized=""/>
    <tripinfo id="111" depart="456.00" departLane="bottom2C0_0" departPos="5.10" departSpeed="0.00" departDelay="0.00" arrival="525.00" arrivalLane="D0right0_0" arrivalPos="286.40" arrivalSpeed="14.90" duration="69.00" routeLength="879.60" waitingTime="1.00" waitingCount="1" stopTime="0.00" timeLoss="11.19" rerouteNo="0" devices="tripinfo_111" vType="DEFAULT_VEHTYPE" speedFactor="1.11" vaporized=""/>
    <tripinfo id="61" depart="286.00" departLane="bottom2C0_0" departPos="5.10" departSpeed="0.00" departDelay="0.00" arrival="535.00" arrivalLane="C3top2_0" arrivalPos="286.40" arrivalSpeed="10.97" duration="249.00" routeLength="1495.58" waitingTime="84.00" waitingCount="4" stopTime="0.00" timeLoss="112.99" rerouteNo="0" devices="tripinfo_61" vType="DEFAULT_VEHTYPE" speedFactor="0.80" vaporized=""/>
    <tripinfo id="47" depart="233.00" departLane="left0A0_0" departPos="5.10" departSpeed="0.00" departDelay="0.00" arrival="538.00" arrivalLane="A3top0_0" arrivalPos="286.40" arrivalSpeed="14.20" duration="305.00" routeLength="1495.35" waitingTime="176.00" waitingCount="4" stopTime="0.00" timeLoss="205.91" rerouteNo="0" devices="tripinfo_47" vType="DEFAULT_VEHTYPE" speedFactor="1.10" vaporized=""/>
    <tripinfo id="93" depart="417.00" departLane="top0A3_0" departPos="5.10" departSpeed="0.00" departDelay="2.00" arrival="540.00" arrivalLane="A2left2_0" arrivalPos="286.40" arrivalSpeed="11.50" duration="123.00" routeLength="876.90" waitingTime="39.00" waitingCount="1" stopTime="0.00" timeLoss="52.51" rerouteNo="0" devices="tripinfo_93" vType="DEFAULT_VEHTYPE" speedFactor="0.91" vaporized=""/>
    <tripinfo id="55" depart="270.00" departLane="bottom3D0_0" departPos="5.10" departSpeed="0.00" departDelay="0.00" arrival="549.00" arrivalLane="A1left1_0" arrivalPos="286.40" arrivalSpeed="13.77" duration="279.00" routeLength="1795.52" waitingTime="125.00" waitingCount="3" stopTime="0.00" timeLoss="148.20" rerouteNo="0" devices="tripinfo_55" vType="DEFAULT_VEHTYPE" speedFactor="0.99" vaporized=""/>
    <tripinfo id="79" depart="369.00" departLane="right3D3_0" departPos="5.10" departSpeed="0.00" departDelay="0.00" arrival="549.00" arrivalLane="C0bottom2_0" arrivalPos="286.40" arrivalSpeed="13.23" duration="180.00" routeLength="1795.52" waitingTime="29.00" waitingCount="3" stopTime="0.00" timeLoss="55.03" rerouteNo="0" devices="tripinfo_79" vType="DEFAULT_VEHTYPE" speedFactor="1.05" vaporized=""/>
    <tripinfo id="23" depart="142.00" departLane="top2C3_0" departPos="5.10" departSpeed="0.00" departDelay="0.00" arrival="550.00" arrivalLane="D0bottom3_0" arrivalPos="286.40" arrivalSpeed="12.24" duration="408.00" routeLength="1782.59" waitingTime="236.00" waitingCount="3" stopTime="0.00" timeLoss="263.79" rerouteNo="0" devices="tripinfo_23" vType="DEFAULT_VEHTYPE" speedFactor="0.90" vaporized=""/>
    <tripinfo id="60" depart="283.00" departLane="right0D0_0" departPos="5.10" departSpeed="0.00" departDelay="0.00" arrival="550.00" arrivalLane="A1left1_1" arrivalPos="286.40" arrivalSpeed="14.14" duration="267.00" routeLength="1782.72" waitingTime="115.00" waitingCount="4" stopTime="0.00" timeLoss="143.68" rerouteNo="0" devices="tripinfo_60" vType="DEFAULT_VEHTYPE" speedFactor="1.05" vaporized=""/>
    <tripinfo id="34" depart="183.00" departLane="left3A3_0" departPos="5.10" departSpeed="0.00" departDelay="0.00" arrival="551.00" arrivalLane="D0bottom3_1" arrivalPos="286.40" arrivalSpeed="12.48" duration="368.00" routeLength="2380.45" waitingTime="139.00" waitingCount="4" stopTime="0.00" timeLoss="179.88" rerouteNo="0" devices="tripinfo_34" vType="DEFAULT_VEHTYPE" speedFactor="0.92" vaporized=""/>
    <tripinfo id="90" depart="406.00" departLane="left1A1_0" departPos="5.10" departSpeed="0.00" departDelay="0.00" arrival="551.00" arrivalLane="C0bottom2_0" arrivalPos="286.40" arrivalSpeed="13.10" duration="145.00" routeLength="1479.94" waitingTime="13.00" waitingCount="2" stopTime="0.00" timeLoss="38.26" rerouteNo="0" devices="tripinfo_90" vType="DEFAULT_VEHTYPE" speedFactor="1.01" vaporized=""/>
    <tripinfo id="50" depart="250.00" departLane="top3D3_0" departPos="5.10" departSpeed="0.00" departDelay="0.00" arrival="556.00" arrivalLane="A1left1_0" arrivalPos="286.40" arrivalSpeed="11.72" duration="306.00" routeLength="2080.28" waitingTime="100.00" waitingCount="4" stopTime="0.00" timeLoss="134.28" rerouteNo="0" devices="tripinfo_50" vType="DEFAULT_VEHTYPE" speedFactor="0.88" vaporized=""/>
    <tripinfo id="83" depart="375.00" departLane="right1D1_0" departPos="5.10" departSpeed="0.00" departDelay="0.00" arrival="556.00" arrivalLane="A0bottom0_0" arrivalPos="286.40" arrivalSpeed="16.04" duration="181.00" routeLength="1795.52" waitingTime="44.00" waitingCount="3" stopTime="0.00" timeLoss="70.55" rerouteNo="0" devices="tripinfo_83" vType="DEFAULT_VEHTYPE" speedFactor="1.18" vaporized=""/>
    <tripinfo id="72" depart="326.00" departLane="left2A2_0" departPos="5.10" departSpeed="0.00" departDelay="0.00" arrival="558.00" arrivalLane="D3right3_0" arrivalPos="286.40" arrivalSpeed="14.56" duration="232.00" routeLength="1782.59" waitingTime="82.00" waitingCount="3" stopTime="0.00" timeLoss="108.55" rerouteNo="0" devices="tripinfo_72" vType="DEFAULT_VEHTYPE" speedFactor="1.06" vaporized=""/>