<?xml version="1.0" encoding="UTF-8"?>

<!-- generated on 12/19/21 11:36:34 by Eclipse SUMO sumo Version 1.7.0
<configuration xmlns:xsi="http://www.w3.org/2001/XMLSchema-instance" xsi:noNamespaceSchemaLocation="http://sumo.dlr.de/xsd/sumoConfiguration.xsd">

    <input>
        <net-file value="C:\Users\longs\Desktop\RESCO-main\environments\grid4x4\grid4x4.net.xml"/>
        <route-files value="C:\Users\longs\Desktop\RESCO-main\environments\grid4x4\grid4x4_50.rou.xml"/>
    </input>

    <output>
        <tripinfo-output value="C:\Users\longs\Desktop\RESCO-main\logs\IDQN-tr1-grid4x4-0-drqlong-delaydiff_pressure01\tripinfo_50.xml"/>
        <tripinfo-output.write-unfinished value="true"/>
    </output>

    <processing>
        <time-to-teleport value="-1"/>
    </processing>

    <report>
        <no-warnings value="true"/>
        <no-step-log value="true"/>
    </report>

    <traci_server>
        <remote-port value="56379"/>
    </traci_server>

    <random_number>
        <random value="true"/>
    </random_number>

</configuration>
-->

<tripinfos xmlns:xsi="http://www.w3.org/2001/XMLSchema-instance" xsi:noNamespaceSchemaLocation="http://sumo.dlr.de/xsd/tripinfo_file.xsd">
    <tripinfo id="13" depart="48.00" departLane="left3A3_0" departPos="5.10" departSpeed="0.00" departDelay="0.00" arrival="111.00" arrivalLane="A3top0_0" arrivalPos="286.40" arrivalSpeed="12.45" duration="63.00" routeLength="597.55" waitingTime="6.00" waitingCount="1" stopTime="0.00" timeLoss="16.01" rerouteNo="0" devices="tripinfo_13" vType="DEFAULT_VEHTYPE" speedFactor="0.93" vaporized=""/>
    <tripinfo id="14" depart="48.00" departLane="right2D2_0" departPos="5.10" departSpeed="0.00" departDelay="0.00" arrival="150.00" arrivalLane="D0bottom3_1" arrivalPos="286.40" arrivalSpeed="14.49" duration="102.00" routeLength="1195.18" waitingTime="8.00" waitingCount="1" stopTime="0.00" timeLoss="21.39" rerouteNo="0" devices="tripinfo_14" vType="DEFAULT_VEHTYPE" speedFactor="1.08" vaporized=""/>
    <tripinfo id="0" depart="1.00" departLane="left1A1_0" departPos="5.10" departSpeed="0.00" departDelay="0.00" arrival="151.00" arrivalLane="B0bottom1_0" arrivalPos="286.40" arrivalSpeed="11.71" duration="150.00" routeLength="1179.77" waitingTime="33.00" waitingCount="1" stopTime="0.00" timeLoss="56.04" rerouteNo="0" devices="tripinfo_0" vType="DEFAULT_VEHTYPE" speedFactor="0.91" vaporized=""/>
    <tripinfo id="20" depart="58.00" departLane="bottom2C0_0" departPos="5.10" departSpeed="0.00" departDelay="0.00" arrival="153.00" arrivalLane="D0bottom3_0" arrivalPos="286.40" arrivalSpeed="10.38" duration="95.00" routeLength="858.56" waitingTime="2.00" waitingCount="2" stopTime="0.00" timeLoss="16.87" rerouteNo="0" devices="tripinfo_20" vType="DEFAULT_VEHTYPE" speedFactor="0.80" vaporized=""/>
    <tripinfo id="4" depart="13.00" departLane="right0D0_0" departPos="5.10" departSpeed="0.00" departDelay="0.00" arrival="159.00" arrivalLane="A0left0_0" arrivalPos="286.40" arrivalSpeed="13.02" duration="146.00" routeLength="1495.58" waitingTime="14.00" waitingCount="2" stopTime="0.00" timeLoss="39.64" rerouteNo="0" devices="tripinfo_4" vType="DEFAULT_VEHTYPE" speedFactor="1.02" vaporized=""/>
    <tripinfo id="9" depart="35.00" departLane="top2C3_0" departPos="5.10" departSpeed="0.00" departDelay="0.00" arrival="178.00" arrivalLane="A3left3_0" arrivalPos="286.40" arrivalSpeed="9.91" duration="143.00" routeLength="1179.77" waitingTime="9.00" waitingCount="2" stopTime="0.00" timeLoss="27.24" rerouteNo="0" devices="tripinfo_9" vType="DEFAULT_VEHTYPE" speedFactor="0.74" vaporized=""/>
    <tripinfo id="12" depart="44.00" departLane="bottom0A0_0" departPos="5.10" departSpeed="0.00" departDelay="0.00" arrival="179.00" arrivalLane="A2left2_0" arrivalPos="286.40" arrivalSpeed="13.39" duration="135.00" routeLength="1197.89" waitingTime="33.00" waitingCount="2" stopTime="0.00" timeLoss="51.84" rerouteNo="0" devices="tripinfo_12" vType="DEFAULT_VEHTYPE" speedFactor="1.05" vaporized=""/>
    <tripinfo id="5" depart="26.00" departLane="left3A3_0" departPos="5.10" departSpeed="0.00" departDelay="0.00" arrival="181.00" arrivalLane="D3top3_0" arrivalPos="286.40" arrivalSpeed="11.59" duration="155.00" routeLength="1498.06" waitingTime="11.00" waitingCount="1" stopTime="0.00" timeLoss="36.35" rerouteNo="0" devices="tripinfo_5" vType="DEFAULT_VEHTYPE" speedFactor="0.91" vaporized=""/>
    <tripinfo id="17" depart="52.00" departLane="bottom0A0_0" departPos="5.10" departSpeed="0.00" departDelay="0.00" arrival="181.00" arrivalLane="A2left2_0" arrivalPos="286.40" arrivalSpeed="13.62" duration="129.00" routeLength="1197.89" waitingTime="23.00" waitingCount="2" stopTime="0.00" timeLoss="44.90" rerouteNo="0" devices="tripinfo_17" vType="DEFAULT_VEHTYPE" speedFactor="1.03" vaporized=""/>
    <tripinfo id="15" depart="49.00" departLane="right3D3_0" departPos="5.10" departSpeed="0.00" departDelay="0.00" arrival="183.00" arrivalLane="D3right3_0" arrivalPos="286.40" arrivalSpeed="16.10" duration="134.00" routeLength="1745.91" waitingTime="2.00" waitingCount="2" stopTime="0.00" timeLoss="25.00" rerouteNo="0" devices="tripinfo_15" vType="DEFAULT_VEHTYPE" speedFactor="1.17" vaporized=""/>
    <tripinfo id="36" depart="131.00" departLane="right0D0_0" departPos="5.10" departSpeed="0.00" departDelay="0.00" arrival="192.00" arrivalLane="D0bottom3_0" arrivalPos="286.40" arrivalSpeed="12.26" duration="61.00" routeLength="597.55" waitingTime="3.00" waitingCount="1" stopTime="0.00" timeLoss="12.85" rerouteNo="0" devices="tripinfo_36" vType="DEFAULT_VEHTYPE" speedFactor="0.91" vaporized=""/>
    <tripinfo id="33" depart="110.00" departLane="right1D1_0" departPos="5.10" departSpeed="0.00" departDelay="0.00" arrival="194.00" arrivalLane="D2right2_0" arrivalPos="286.40" arrivalSpeed="12.48" duration="84.00" routeLength="858.56" waitingTime="2.00" waitingCount="2" stopTime="0.00" timeLoss="18.75" rerouteNo="0" devices="tripinfo_33" vType="DEFAULT_VEHTYPE" speedFactor="0.97" vaporized=""/>
    <tripinfo id="2" depart="8.00" departLane="top2C3_0" departPos="5.10" departSpeed="0.00" departDelay="0.00" arrival="199.00" arrivalLane="D0right0_0" arrivalPos="286.40" arrivalSpeed="12.98" duration="191.00" routeLength="1795.52" waitingTime="35.00" waitingCount="3" stopTime="0.00" timeLoss="63.27" rerouteNo="0" devices="tripinfo_2" vType="DEFAULT_VEHTYPE" speedFactor="1.02" vaporized=""/>
    <tripinfo id="37" depart="139.00" departLane="right3D3_0" departPos="5.10" departSpeed="0.00" departDelay="0.00" arrival="200.00" arrivalLane="D3top3_0" arrivalPos="286.40" arrivalSpeed="10.90" duration="61.00" routeLength="576.73" waitingTime="1.00" waitingCount="1" stopTime="0.00" timeLoss="10.86" rerouteNo="0" devices="tripinfo_37" vType="DEFAULT_VEHTYPE" speedFactor="0.85" vaporized=""/>
    <tripinfo id="1" depart="5.00" departLane="left1A1_0" departPos="5.10" departSpeed="0.00" departDelay="0.00" arrival="207.00" arrivalLane="D0bottom3_0" arrivalPos="286.40" arrivalSpeed="14.88" duration="202.00" routeLength="1780.11" waitingTime="41.00" waitingCount="5" stopTime="0.00" timeLoss="85.21" rerouteNo="0" devices="tripinfo_1" vType="DEFAULT_VEHTYPE" speedFactor="1.10" vaporized=""/>
    <tripinfo id="22" depart="70.00" departLane="right2D2_0" departPos="5.10" departSpeed="0.00" departDelay="0.00" arrival="210.00" arrivalLane="C3top2_0" arrivalPos="286.40" arrivalSpeed="12.66" duration="140.00" routeLength="1179.77" waitingTime="27.00" waitingCount="3" stopTime="0.00" timeLoss="53.25" rerouteNo="0" devices="tripinfo_22" vType="DEFAULT_VEHTYPE" speedFactor="0.99" vaporized=""/>
    <tripinfo id="24" depart="78.00" departLane="right1D1_0" departPos="5.10" departSpeed="0.00" departDelay="0.00" arrival="210.00" arrivalLane="D3top3_0" arrivalPos="286.40" arrivalSpeed="12.57" duration="132.00" routeLength="1179.77" waitingTime="15.00" waitingCount="3" stopTime="0.00" timeLoss="39.86" rerouteNo="0" devices="tripinfo_24" vType="DEFAULT_VEHTYPE" speedFactor="0.93" vaporized=""/>
    <tripinfo id="3" depart="11.00" departLane="bottom1B0_0" departPos="5.10" departSpeed="0.00" departDelay="0.00" arrival="220.00" arrivalLane="D3top3_0" arrivalPos="286.40" arrivalSpeed="12.29" duration="209.00" routeLength="2082.76" waitingTime="13.00" waitingCount="4" stopTime="0.00" timeLoss="53.99" rerouteNo="0" devices="tripinfo_3" vType="DEFAULT_VEHTYPE" speedFactor="0.97" vaporized=""/>
    <tripinfo id="6" depart="30.00" departLane="bottom0A0_0" departPos="5.10" departSpeed="0.00" departDelay="0.00" arrival="220.00" arrivalLane="A3top0_0" arrivalPos="286.40" arrivalSpeed="12.92" duration="190.00" routeLength="1495.58" waitingTime="54.00" waitingCount="3" stopTime="0.00" timeLoss="79.17" rerouteNo="0" devices="tripinfo_6" vType="DEFAULT_VEHTYPE" speedFactor="0.98" vaporized=""/>
    <tripinfo id="8" depart="32.00" departLane="left0A0_0" departPos="5.10" departSpeed="0.00" departDelay="0.00" arrival="222.00" arrivalLane="D0right0_0" arrivalPos="286.40" arrivalSpeed="11.42" duration="190.00" routeLength="1495.58" waitingTime="32.00" waitingCount="4" stopTime="0.00" timeLoss="67.35" rerouteNo="0" devices="tripinfo_8" vType="DEFAULT_VEHTYPE" speedFactor="0.88" vaporized=""/>
    <tripinfo id="16" depart="51.00" departLane="right0D0_0" departPos="5.10" departSpeed="0.00" departDelay="0.00" arrival="239.00" arrivalLane="D0right0_0" arrivalPos="286.40" arrivalSpeed="13.47" duration="188.00" routeLength="1748.75" waitingTime="34.00" waitingCount="3" stopTime="0.00" timeLoss="63.64" rerouteNo="0" devices="tripinfo_16" vType="DEFAULT_VEHTYPE" speedFactor="1.04" vaporized=""/>
    <tripinfo id="30" depart="100.00" departLane="bottom1B0_0" departPos="5.10" departSpeed="0.00" departDelay="0.00" arrival="247.00" arrivalLane="A3top0_0" arrivalPos="286.40" arrivalSpeed="14.49" duration="147.00" routeLength="1782.59" waitingTime="11.00" waitingCount="2" stopTime="0.00" timeLoss="31.07" rerouteNo="0" devices="tripinfo_30" vType="DEFAULT_VEHTYPE" speedFactor="1.12" vaporized=""/>
    <tripinfo id="32" depart="107.00" departLane="top2C3_0" departPos="5.10" departSpeed="0.00" departDelay="0.00" arrival="247.00" arrivalLane="D2right2_0" arrivalPos="286.40" arrivalSpeed="14.29" duration="140.00" routeLength="1195.18" waitingTime="37.00" waitingCount="3" stopTime="0.00" timeLoss="61.02" rerouteNo="0" devices="tripinfo_32" vType="DEFAULT_VEHTYPE" speedFactor="1.10" vaporized=""/>
    <tripinfo id="39" depart="158.00" departLane="left1A1_0" departPos="5.10" departSpeed="0.00" departDelay="0.00" arrival="248.00" arrivalLane="A2left2_0" arrivalPos="286.40" arrivalSpeed="13.77" duration="90.00" routeLength="894.86" waitingTime="12.00" waitingCount="2" stopTime="0.00" timeLoss="28.81" rerouteNo="0" devices="tripinfo_39" vType="DEFAULT_VEHTYPE" speedFactor="1.08" vaporized=""/>
    <tripinfo id="43" depart="163.00" departLane="right0D0_0" departPos="5.10" departSpeed="0.00" departDelay="0.00" arrival="248.00" arrivalLane="C0bottom2_0" arrivalPos="286.40" arrivalSpeed="14.23" duration="85.00" routeLength="897.72" waitingTime="7.00" waitingCount="2" stopTime="0.00" timeLoss="23.51" rerouteNo="0" devices="tripinfo_43" vType="DEFAULT_VEHTYPE" speedFactor="1.07" vaporized=""/>
    <tripinfo id="11" depart="44.00" departLane="top2C3_0" departPos="5.10" departSpeed="0.00" departDelay="0.00" arrival="249.00" arrivalLane="D0bottom3_0" arrivalPos="286.40" arrivalSpeed="12.84" duration="205.00" routeLength="1782.59" waitingTime="41.00" waitingCount="3" stopTime="0.00" timeLoss="73.13" rerouteNo="0" devices="tripinfo_11" vType="DEFAULT_VEHTYPE" speedFactor="0.98" vaporized=""/>
    <tripinfo id="23" depart="72.00" departLane="top0A3_0" departPos="5.10" departSpeed="0.00" departDelay="0.00" arrival="250.00" arrivalLane="B0bottom1_1" arrivalPos="286.40" arrivalSpeed="14.58" duration="178.00" routeLength="1782.59" waitingTime="16.00" waitingCount="4" stopTime="0.00" timeLoss="62.80" rerouteNo="0" devices="tripinfo_23" vType="DEFAULT_VEHTYPE" speedFactor="1.13" vaporized=""/>
    <tripinfo id="7" depart="30.00" departLane="top0A3_0" departPos="5.10" departSpeed="0.00" departDelay="0.00" arrival="254.00" arrivalLane="B0bottom1_0" arrivalPos="286.40" arrivalSpeed="10.87" duration="224.00" routeLength="1782.59" waitingTime="34.00" waitingCount="5" stopTime="0.00" timeLoss="69.19" rerouteNo="0" devices="tripinfo_7" vType="DEFAULT_VEHTYPE" speedFactor="0.84" vaporized=""/>
    <tripinfo id="25" depart="79.00" departLane="left3A3_0" departPos="5.10" departSpeed="0.00" departDelay="0.00" arrival="256.00" arrivalLane="D2right2_0" arrivalPos="286.40" arrivalSpeed="11.94" duration="177.00" routeLength="1782.72" waitingTime="8.00" waitingCount="2" stopTime="0.00" timeLoss="32.47" rerouteNo="0" devices="tripinfo_25" vType="DEFAULT_VEHTYPE" speedFactor="0.90" vaporized=""/>
    <tripinfo id="27" depart="85.00" departLane="top2C3_0" departPos="5.10" departSpeed="0.00" departDelay="0.00" arrival="256.00" arrivalLane="C3top2_0" arrivalPos="286.40" arrivalSpeed="15.81" duration="171.00" routeLength="1748.75" waitingTime="22.00" waitingCount="4" stopTime="0.00" timeLoss="60.19" rerouteNo="0" devices="tripinfo_27" vType="DEFAULT_VEHTYPE" speedFactor="1.16" vaporized=""/>
    <tripinfo id="18" depart="55.00" departLane="right1D1_0" departPos="5.10" departSpeed="0.00" departDelay="0.00" arrival="258.00" arrivalLane="B3top1_0" arrivalPos="286.40" arrivalSpeed="14.31" duration="203.00" routeLength="1780.11" waitingTime="45.00" waitingCount="5" stopTime="0.00" timeLoss="84.36" rerouteNo="0" devices="tripinfo_18" vType="DEFAULT_VEHTYPE" speedFactor="1.10" vaporized=""/>
    <tripinfo id="55" depart="214.00" departLane="left0A0_0" departPos="5.10" departSpeed="0.00" departDelay="0.00" arrival="270.00" arrivalLane="A0bottom0_0" arrivalPos="286.40" arrivalSpeed="12.36" duration="56.00" routeLength="576.73" waitingTime="1.00" waitingCount="1" stopTime="0.00" timeLoss="11.76" rerouteNo="0" devices="tripinfo_55" vType="DEFAULT_VEHTYPE" speedFactor="0.96" vaporized=""/>
    <tripinfo id="28" depart="93.00" departLane="left3A3_0" departPos="5.10" departSpeed="0.00" departDelay="0.00" arrival="277.00" arrivalLane="D2right2_0" arrivalPos="286.40" arrivalSpeed="14.47" duration="184.00" routeLength="1782.72" waitingTime="24.00" waitingCount="2" stopTime="0.00" timeLoss="66.98" rerouteNo="0" devices="tripinfo_28" vType="DEFAULT_VEHTYPE" speedFactor="1.11" vaporized=""/>
    <tripinfo id="10" depart="42.00" departLane="right2D2_0" departPos="5.10" departSpeed="0.00" departDelay="0.00" arrival="279.00" arrivalLane="A0left0_0" arrivalPos="286.40" arrivalSpeed="13.42" duration="237.00" routeLength="2080.05" waitingTime="43.00" waitingCount="5" stopTime="0.00" timeLoss="89.05" rerouteNo="0" devices="tripinfo_10" vType="DEFAULT_VEHTYPE" speedFactor="1.02" vaporized=""/>
    <tripinfo id="21" depart="66.00" departLane="right1D1_0" departPos="5.10" departSpeed="0.00" departDelay="0.00" arrival="280.00" arrivalLane="A0left0_1" arrivalPos="286.40" arrivalSpeed="14.28" duration="214.00" routeLength="1782.59" waitingTime="50.00" waitingCount="4" stopTime="0.00" timeLoss="91.66" rerouteNo="0" devices="tripinfo_21" vType="DEFAULT_VEHTYPE" speedFactor="1.06" vaporized=""/>
    <tripinfo id="19" depart="58.00" departLane="right0D0_0" departPos="5.10" departSpeed="0.00" departDelay="0.00" arrival="281.00" arrivalLane="A1left1_0" arrivalPos="286.40" arrivalSpeed="11.28" duration="223.00" routeLength="1782.72" waitingTime="36.00" waitingCount="4" stopTime="0.00" timeLoss="73.11" rerouteNo="0" devices="tripinfo_19" vType="DEFAULT_VEHTYPE" speedFactor="0.86" vaporized=""/>
    <tripinfo id="51" depart="203.00" departLane="right2D2_0" departPos="5.10" departSpeed="0.00" departDelay="0.00" arrival="282.00" arrivalLane="D3right3_0" arrivalPos="286.40" arrivalSpeed="12.98" duration="79.00" routeLength="858.56" waitingTime="1.00" waitingCount="1" stopTime="0.00" timeLoss="12.99" rerouteNo="0" devices="tripinfo_51" vType="DEFAULT_VEHTYPE" speedFactor="0.96" vaporized=""/>
    <tripinfo id="53" depart="208.00" departLane="right0D0_0" departPos="5.10" departSpeed="0.00" departDelay="0.00" arrival="289.00" arrivalLane="C0bottom2_1" arrivalPos="286.40" arrivalSpeed="15.22" duration="81.00" routeLength="897.72" waitingTime="7.00" waitingCount="1" stopTime="0.00" timeLoss="21.85" rerouteNo="0" devices="tripinfo_53" vType="DEFAULT_VEHTYPE" speedFactor="1.11" vaporized=""/>
    <tripinfo id="40" depart="158.00" departLane="bottom3D0_0" departPos="5.10" departSpeed="0.00" departDelay="0.00" arrival="292.00" arrivalLane="C0bottom2_0" arrivalPos="286.40" arrivalSpeed="12.03" duration="134.00" routeLength="894.86" waitingTime="44.00" waitingCount="2" stopTime="0.00" timeLoss="60.08" rerouteNo="0" devices="tripinfo_40" vType="DEFAULT_VEHTYPE" speedFactor="0.89" vaporized=""/>
    <tripinfo id="54" depart="211.00" departLane="bottom0A0_0" departPos="5.10" departSpeed="0.00" departDelay="0.00" arrival="298.00" arrivalLane="A1left1_0" arrivalPos="286.40" arrivalSpeed="14.74" duration="87.00" routeLength="897.72" waitingTime="10.00" waitingCount="2" stopTime="0.00" timeLoss="25.33" rerouteNo="0" devices="tripinfo_54" vType="DEFAULT_VEHTYPE" speedFactor="1.07" vaporized=""/>
    <tripinfo id="45" depart="171.00" departLane="left3A3_0" departPos="5.10" departSpeed="0.00" departDelay="0.00" arrival="300.00" arrivalLane="C3top2_0" arrivalPos="286.40" arrivalSpeed="12.95" duration="129.00" routeLength="1197.89" waitingTime="23.00" waitingCount="2" stopTime="0.00" timeLoss="40.77" rerouteNo="0" devices="tripinfo_45" vType="DEFAULT_VEHTYPE" speedFactor="0.99" vaporized=""/>
    <tripinfo id="44" depart="164.00" departLane="left3A3_0" departPos="5.10" departSpeed="0.00" departDelay="0.00" arrival="309.00" arrivalLane="D3top3_0" arrivalPos="286.40" arrivalSpeed="13.77" duration="145.00" routeLength="1498.06" waitingTime="21.00" waitingCount="2" stopTime="0.00" timeLoss="39.44" rerouteNo="0" devices="tripinfo_44" vType="DEFAULT_VEHTYPE" speedFactor="1.03" vaporized=""/>
    <tripinfo id="41" depart="161.00" departLane="bottom2C0_0" departPos="5.10" departSpeed="0.00" departDelay="0.00" arrival="315.00" arrivalLane="C0bottom2_0" arrivalPos="286.40" arrivalSpeed="15.47" duration="154.00" routeLength="1748.75" waitingTime="9.00" waitingCount="4" stopTime="0.00" timeLoss="41.78" rerouteNo="0" devices="tripinfo_41" vType="DEFAULT_VEHTYPE" speedFactor="1.15" vaporized=""/>
    <tripinfo id="34" depart="112.00" departLane="bottom1B0_0" departPos="5.10" departSpeed="0.00" departDelay="0.00" arrival="319.00" arrivalLane="C3top2_0" arrivalPos="286.40" arrivalSpeed="13.72" duration="207.00" routeLength="1782.72" waitingTime="43.00" waitingCount="4" stopTime="0.00" timeLoss="76.87" rerouteNo="0" devices="tripinfo_34" vType="DEFAULT_VEHTYPE" speedFactor="0.99" vaporized=""/>
    <tripinfo id="35" depart="118.00" departLane="top3D3_0" departPos="5.10" departSpeed="0.00" departDelay="0.00" arrival="327.00" arrivalLane="A1left1_0" arrivalPos="286.40" arrivalSpeed="14.71" duration="209.00" routeLength="2080.28" waitingTime="43.00" waitingCount="3" stopTime="0.00" timeLoss="71.24" rerouteNo="0" devices="tripinfo_35" vType="DEFAULT_VEHTYPE" speedFactor="1.09" vaporized=""/>
    <tripinfo id="47" depart="183.00" departLane="right0D0_0" departPos="5.10" departSpeed="0.00" departDelay="0.00" arrival="327.00" arrivalLane="D3top3_0" arrivalPos="286.40" arrivalSpeed="14.98" duration="144.00" routeLength="1479.94" waitingTime="22.00" waitingCount="3" stopTime="0.00" timeLoss="49.12" rerouteNo="0" devices="tripinfo_47" vType="DEFAULT_VEHTYPE" speedFactor="1.14" vaporized=""/>
    <tripinfo id="42" depart="162.00" departLane="left2A2_0" departPos="5.10" departSpeed="0.00" departDelay="0.00" arrival="338.00" arrivalLane="C0bottom2_0" arrivalPos="286.40" arrivalSpeed="13.34" duration="176.00" routeLength="1780.11" waitingTime="26.00" waitingCount="3" stopTime="0.00" timeLoss="53.04" rerouteNo="0" devices="tripinfo_42" vType="DEFAULT_VEHTYPE" speedFactor="1.05" vaporized=""/>
    <tripinfo id="31" depart="104.00" departLane="top3D3_0" departPos="5.10" departSpeed="0.00" departDelay="0.00" arrival="340.00" arrivalLane="B0bottom1_0" arrivalPos="286.40" arrivalSpeed="13.83" duration="236.00" routeLength="2082.76" waitingTime="65.00" waitingCount="4" stopTime="0.00" timeLoss="96.42" rerouteNo="0" devices="tripinfo_31" vType="DEFAULT_VEHTYPE" speedFactor="1.09" vaporized=""/>
    <tripinfo id="38" depart="153.00" departLane="right2D2_0" departPos="5.10" departSpeed="0.00" departDelay="0.00" arrival="340.00" arrivalLane="A3left3_0" arrivalPos="286.40" arrivalSpeed="12.17" duration="187.00" routeLength="1782.72" waitingTime="22.00" waitingCount="4" stopTime="0.00" timeLoss="52.27" rerouteNo="0" devices="tripinfo_38" vType="DEFAULT_VEHTYPE" speedFactor="0.96" vaporized=""/>
    <tripinfo id="52" depart="206.00" departLane="right2D2_0" departPos="5.10" departSpeed="0.00" departDelay="3.00" arrival="340.00" arrivalLane="D0right0_0" arrivalPos="286.40" arrivalSpeed="14.57" duration="134.00" routeLength="1197.66" waitingTime="34.00" waitingCount="2" stopTime="0.00" timeLoss="50.89" rerouteNo="0" devices="tripinfo_52" vType="DEFAULT_VEHTYPE" speedFactor="1.06" vaporized=""/>
    <tripinfo id="50" depart="198.00" departLane="left0A0_0" departPos="5.10" departSpeed="0.00" departDelay="0.00" arrival="343.00" arrivalLane="C0bottom2_0" arrivalPos="286.40" arrivalSpeed="13.34" duration="145.00" routeLength="1177.07" waitingTime="37.00" waitingCount="2" stopTime="0.00" timeLoss="59.76" rerouteNo="0" devices="tripinfo_50" vType="DEFAULT_VEHTYPE" speedFactor="1.01" vaporized=""/>
    <tripinfo id="26" depart="84.00" departLane="left0A0_0" departPos="5.10" departSpeed="0.00" departDelay="0.00" arrival="361.00" arrivalLane="D2right2_0" arrivalPos="286.40" arrivalSpeed="12.35" duration="277.00" routeLength="2080.05" waitingTime="66.00" waitingCount="6" stopTime="0.00" timeLoss="110.02" rerouteNo="0" devices="tripinfo_26" vType="DEFAULT_VEHTYPE" speedFactor="0.90" vaporized=""/>
    <tripinfo id="60" depart="252.00" departLane="top2C3_0" departPos="5.10" departSpeed="0.00" departDelay="0.00" arrival="361.00" arrivalLane="A3top0_0" arrivalPos="286.40" arrivalSpeed="13.59" duration="109.00" routeLength="1161.43" waitingTime="9.00" waitingCount="2" stopTime="0.00" timeLoss="26.32" rerouteNo="0" devices="tripinfo_60" vType="DEFAULT_VEHTYPE" speedFactor="1.03" vaporized=""/>
    <tripinfo id="56" depart="215.00" departLane="left1A1_0" departPos="5.10" departSpeed="0.00" departDelay="0.00" arrival="372.00" arrivalLane="A3left3_0" arrivalPos="286.40" arrivalSpeed="12.19" duration="157.00" routeLength="1197.66" waitingTime="35.00" waitingCount="3" stopTime="0.00" timeLoss="57.90" rerouteNo="0" devices="tripinfo_56" vType="DEFAULT_VEHTYPE" speedFactor="0.88" vaporized=""/>
    <tripinfo id="29" depart="99.00" departLane="right0D0_0" departPos="5.10" departSpeed="0.00" departDelay="0.00" arrival="373.00" arrivalLane="A3top0_0" arrivalPos="286.40" arrivalSpeed="11.21" duration="274.00" routeLength="2380.45" waitingTime="31.00" waitingCount="4" stopTime="0.00" timeLoss="68.55" rerouteNo="0" devices="tripinfo_29" vType="DEFAULT_VEHTYPE" speedFactor="0.84" vaporized=""/>
    <tripinfo id="58" depart="241.00" departLane="bottom3D0_0" departPos="5.10" departSpeed="0.00" departDelay="0.00" arrival="384.00" arrivalLane="D2right2_0" arrivalPos="286.40" arrivalSpeed="12.51" duration="143.00" routeLength="1177.07" waitingTime="34.00" waitingCount="2" stopTime="0.00" timeLoss="55.26" rerouteNo="0" devices="tripinfo_58" vType="DEFAULT_VEHTYPE" speedFactor="0.98" vaporized=""/>
    <tripinfo id="46" depart="174.00" departLane="left1A1_0" departPos="5.10" departSpeed="0.00" departDelay="0.00" arrival="389.00" arrivalLane="D3right3_0" arrivalPos="286.40" arrivalSpeed="13.77" duration="215.00" routeLength="2080.05" waitingTime="36.00" waitingCount="4" stopTime="0.00" timeLoss="67.87" rerouteNo="0" devices="tripinfo_46" vType="DEFAULT_VEHTYPE" speedFactor="1.03" vaporized=""/>
    <tripinfo id="49" depart="193.00" departLane="right2D2_0" departPos="5.10" departSpeed="0.00" departDelay="0.00" arrival="402.00" arrivalLane="B0bottom1_0" arrivalPos="286.40" arrivalSpeed="11.76" duration="209.00" routeLength="1795.52" waitingTime="27.00" waitingCount="3" stopTime="0.00" timeLoss="61.24" rerouteNo="0" devices="tripinfo_49" vType="DEFAULT_VEHTYPE" speedFactor="0.88" vaporized=""/>
    <tripinfo id="64" depart="318.00" departLane="left2A2_0" departPos="5.10" departSpeed="0.00" departDelay="0.00" arrival="442.00" arrivalLane="B3top1_0" arrivalPos="286.40" arrivalSpeed="13.17" duration="124.00" routeLength="1195.18" waitingTime="18.00" waitingCount="2" stopTime="0.00" timeLoss="36.58" rerouteNo="0" devices="tripinfo_64" vType="DEFAULT_VEHTYPE" speedFactor="0.99" vaporized=""/>
    <tripinfo id="66" depart="338.00" departLane="top0A3_0" departPos="5.10" departSpeed="0.00" departDelay="0.00" arrival="444.00" arrivalLane="A1left1_0" arrivalPos="286.40" arrivalSpeed="15.52" duration="106.00" routeLength="1177.07" waitingTime="6.00" waitingCount="2" stopTime="0.00" timeLoss="29.27" rerouteNo="0" devices="tripinfo_66" vType="DEFAULT_VEHTYPE" speedFactor="1.12" vaporized=""/>
    <tripinfo id="70" depart="346.00" departLane="top0A3_0" departPos="5.10" departSpeed="0.00" departDelay="0.00" arrival="450.00" arrivalLane="A1left1_0" arrivalPos="286.40" arrivalSpeed="13.90" duration="104.00" routeLength="1177.07" waitingTime="1.00" waitingCount="1" stopTime="0.00" timeLoss="22.36" rerouteNo="0" devices="tripinfo_70" vType="DEFAULT_VEHTYPE" speedFactor="1.05" vaporized=""/>
    <tripinfo id="75" depart="378.00" departLane="bottom1B0_0" departPos="5.10" departSpeed="0.00" departDelay="0.00" arrival="452.00" arrivalLane="C0bottom2_0" arrivalPos="286.40" arrivalSpeed="13.71" duration="74.00" routeLength="858.56" waitingTime="1.00" waitingCount="1" stopTime="0.00" timeLoss="12.49" rerouteNo="0" devices="tripinfo_75" vType="DEFAULT_VEHTYPE" speedFactor="1.03" vaporized=""/>
    <tripinfo id="65" depart="332.00" departLane="top3D3_0" departPos="5.10" departSpeed="0.00" departDelay="0.00" arrival="472.00" arrivalLane="D2right2_0" arrivalPos="286.40" arrivalSpeed="12.00" duration="140.00" routeLength="897.72" waitingTime="51.00" waitingCount="2" stopTime="0.00" timeLoss="65.87" rerouteNo="0" devices="tripinfo_65" vType="DEFAULT_VEHTYPE" speedFactor="0.88" vaporized=""/>
    <tripinfo id="48" depart="185.00" departLane="left0A0_0" departPos="5.10" departSpeed="0.00" departDelay="0.00" arrival="476.00" arrivalLane="D3top3_0" arrivalPos="286.40" arrivalSpeed="15.43" duration="291.00" routeLength="2395.86" waitingTime="97.00" waitingCount="6" stopTime="0.00" timeLoss="141.35" rerouteNo="0" devices="tripinfo_48" vType="DEFAULT_VEHTYPE" speedFactor="1.16" vaporized=""/>
    <tripinfo id="59" depart="252.00" departLane="left2A2_0" departPos="5.10" departSpeed="0.00" departDelay="0.00" arrival="476.00" arrivalLane="D0bottom3_0" arrivalPos="286.40" arrivalSpeed="16.06" duration="224.00" routeLength="2080.28" waitingTime="48.00" waitingCount="6" stopTime="0.00" timeLoss="95.43" rerouteNo="0" devices="tripinfo_59" vType="DEFAULT_VEHTYPE" speedFactor="1.17" vaporized=""/>
    <tripinfo id="62" depart="314.00" departLane="bottom3D0_0" departPos="5.10" departSpeed="0.00" departDelay="0.00" arrival="476.00" arrivalLane="A1left1_0" arrivalPos="286.40" arrivalSpeed="13.74" duration="162.00" routeLength="1795.52" waitingTime="13.00" waitingCount="2" stopTime="0.00" timeLoss="33.01" rerouteNo="0" devices="tripinfo_62" vType="DEFAULT_VEHTYPE" speedFactor="1.01" vaporized=""/>
    <tripinfo id="74" depart="378.00" departLane="left0A0_0" departPos="5.10" departSpeed="0.00" departDelay="0.00" arrival="479.00" arrivalLane="B0bottom1_0" arrivalPos="286.40" arrivalSpeed="12.99" duration="101.00" routeLength="876.90" waitingTime="17.00" waitingCount="2" stopTime="0.00" timeLoss="33.06" rerouteNo="0" devices="tripinfo_74" vType="DEFAULT_VEHTYPE" speedFactor="0.95" vaporized=""/>
    <tripinfo id="57" depart="225.00" departLane="top0A3_0" departPos="5.10" departSpeed="0.00" departDelay="0.00" arrival="481.00" arrivalLane="D0bottom3_0" arrivalPos="286.40" arrivalSpeed="13.99" duration="256.00" routeLength="2380.22" waitingTime="39.00" waitingCount="5" stopTime="0.00" timeLoss="85.25" rerouteNo="0" devices="tripinfo_57" vType="DEFAULT_VEHTYPE" speedFactor="1.01" vaporized=""/>
    <tripinfo id="69" depart="344.00" departLane="top3D3_0" departPos="5.10" departSpeed="0.00" departDelay="0.00" arrival="485.00" arrivalLane="A3top0_0" arrivalPos="286.40" arrivalSpeed="11.79" duration="141.00" routeLength="1461.60" waitingTime="6.00" waitingCount="2" stopTime="0.00" timeLoss="27.27" rerouteNo="0" devices="tripinfo_69" vType="DEFAULT_VEHTYPE" speedFactor="0.94" vaporized=""/>
    <tripinfo id="77" depart="398.00" departLane="top3D3_0" departPos="5.10" departSpeed="0.00" departDelay="0.00" arrival="485.00" arrivalLane="D2right2_0" arrivalPos="286.40" arrivalSpeed="16.90" duration="87.00" routeLength="897.72" waitingTime="16.00" waitingCount="2" stopTime="0.00" timeLoss="34.74" rerouteNo="0" devices="tripinfo_77" vType="DEFAULT_VEHTYPE" speedFactor="1.25" vaporized=""/>
    <tripinfo id="67" depart="341.00" departLane="top0A3_0" departPos="5.10" departSpeed="0.00" departDelay="3.00" arrival="491.00" arrivalLane="A0bottom0_0" arrivalPos="286.40" arrivalSpeed="12.22" duration="150.00" routeLength="1495.58" waitingTime="9.00" waitingCount="1" stopTime="0.00" timeLoss="29.49" rerouteNo="0" devices="tripinfo_67" vType="DEFAULT_VEHTYPE" speedFactor="0.90" vaporized=""/>