<?xml version="1.0" encoding="UTF-8"?>

<!-- generated on 12/19/21 11:00:24 by Eclipse SUMO sumo Version 1.7.0
<configuration xmlns:xsi="http://www.w3.org/2001/XMLSchema-instance" xsi:noNamespaceSchemaLocation="http://sumo.dlr.de/xsd/sumoConfiguration.xsd">

    <input>
        <net-file value="C:\Users\longs\Desktop\RESCO-main\environments\grid4x4\grid4x4.net.xml"/>
        <route-files value="C:\Users\longs\Desktop\RESCO-main\environments\grid4x4\grid4x4_13.rou.xml"/>
    </input>

    <output>
        <tripinfo-output value="C:\Users\longs\Desktop\RESCO-main\logs\IDQN-tr1-grid4x4-0-drqlong-delaydiff_pressure01\tripinfo_13.xml"/>
        <tripinfo-output.write-unfinished value="true"/>
    </output>

    <processing>
        <time-to-teleport value="-1"/>
    </processing>

    <report>
        <no-warnings value="true"/>
        <no-step-log value="true"/>
    </report>

    <traci_server>
        <remote-port value="59391"/>
    </traci_server>

    <random_number>
        <random value="true"/>
    </random_number>

</configuration>
-->

<tripinfos xmlns:xsi="http://www.w3.org/2001/XMLSchema-instance" xsi:noNamespaceSchemaLocation="http://sumo.dlr.de/xsd/tripinfo_file.xsd">
    <tripinfo id="2" depart="16.00" departLane="top0A3_0" departPos="5.10" departSpeed="0.00" departDelay="0.00" arrival="71.00" arrivalLane="A3left3_0" arrivalPos="286.40" arrivalSpeed="13.51" duration="55.00" routeLength="576.73" waitingTime="1.00" waitingCount="1" stopTime="0.00" timeLoss="13.48" rerouteNo="0" devices="tripinfo_2" vType="DEFAULT_VEHTYPE" speedFactor="1.03" vaporized=""/>
    <tripinfo id="5" depart="26.00" departLane="right2D2_0" departPos="5.10" departSpeed="0.00" departDelay="0.00" arrival="147.00" arrivalLane="A2left2_0" arrivalPos="286.40" arrivalSpeed="14.30" duration="121.00" routeLength="1495.58" waitingTime="0.00" waitingCount="0" stopTime="0.00" timeLoss="17.04" rerouteNo="0" devices="tripinfo_5" vType="DEFAULT_VEHTYPE" speedFactor="1.04" vaporized=""/>
    <tripinfo id="1" depart="9.00" departLane="left3A3_0" departPos="5.10" departSpeed="0.00" departDelay="0.00" arrival="167.00" arrivalLane="A0bottom0_0" arrivalPos="286.40" arrivalSpeed="14.55" duration="158.00" routeLength="1479.94" waitingTime="38.00" waitingCount="2" stopTime="0.00" timeLoss="61.04" rerouteNo="0" devices="tripinfo_1" vType="DEFAULT_VEHTYPE" speedFactor="1.11" vaporized=""/>
    <tripinfo id="15" depart="71.00" departLane="right2D2_0" departPos="5.10" departSpeed="0.00" departDelay="0.00" arrival="169.00" arrivalLane="D1right1_0" arrivalPos="286.40" arrivalSpeed="13.10" duration="98.00" routeLength="894.86" waitingTime="21.00" waitingCount="1" stopTime="0.00" timeLoss="33.90" rerouteNo="0" devices="tripinfo_15" vType="DEFAULT_VEHTYPE" speedFactor="1.03" vaporized=""/>
    <tripinfo id="25" depart="115.00" departLane="bottom3D0_0" departPos="5.10" departSpeed="0.00" departDelay="0.00" arrival="183.00" arrivalLane="D1right1_0" arrivalPos="286.40" arrivalSpeed="13.78" duration="68.00" routeLength="876.90" waitingTime="0.00" waitingCount="0" stopTime="0.00" timeLoss="7.64" rerouteNo="0" devices="tripinfo_25" vType="DEFAULT_VEHTYPE" speedFactor="1.06" vaporized=""/>
    <tripinfo id="9" depart="45.00" departLane="right2D2_0" departPos="5.10" departSpeed="0.00" departDelay="0.00" arrival="190.00" arrivalLane="B3top1_0" arrivalPos="286.40" arrivalSpeed="13.18" duration="145.00" routeLength="1479.94" waitingTime="12.00" waitingCount="2" stopTime="0.00" timeLoss="38.43" rerouteNo="0" devices="tripinfo_9" vType="DEFAULT_VEHTYPE" speedFactor="1.01" vaporized=""/>
    <tripinfo id="11" depart="54.00" departLane="bottom1B0_0" departPos="5.10" departSpeed="0.00" departDelay="0.00" arrival="200.00" arrivalLane="A1left1_0" arrivalPos="286.40" arrivalSpeed="12.70" duration="146.00" routeLength="1195.18" waitingTime="32.00" waitingCount="3" stopTime="0.00" timeLoss="59.00" rerouteNo="0" devices="tripinfo_11" vType="DEFAULT_VEHTYPE" speedFactor="1.01" vaporized=""/>
    <tripinfo id="29" depart="129.00" departLane="left1A1_0" departPos="5.10" departSpeed="0.00" departDelay="0.00" arrival="207.00" arrivalLane="A2left2_0" arrivalPos="286.40" arrivalSpeed="14.90" duration="78.00" routeLength="894.86" waitingTime="8.00" waitingCount="1" stopTime="0.00" timeLoss="19.65" rerouteNo="0" devices="tripinfo_29" vType="DEFAULT_VEHTYPE" speedFactor="1.12" vaporized=""/>
    <tripinfo id="14" depart="69.00" departLane="left0A0_0" departPos="5.10" departSpeed="0.00" departDelay="0.00" arrival="218.00" arrivalLane="D0right0_0" arrivalPos="286.40" arrivalSpeed="15.33" duration="149.00" routeLength="1495.58" waitingTime="23.00" waitingCount="3" stopTime="0.00" timeLoss="51.36" rerouteNo="0" devices="tripinfo_14" vType="DEFAULT_VEHTYPE" speedFactor="1.11" vaporized=""/>
    <tripinfo id="31" depart="133.00" departLane="bottom3D0_0" departPos="5.10" departSpeed="0.00" departDelay="0.00" arrival="220.00" arrivalLane="C0bottom2_0" arrivalPos="286.40" arrivalSpeed="12.51" duration="87.00" routeLength="894.86" waitingTime="8.00" waitingCount="1" stopTime="0.00" timeLoss="20.01" rerouteNo="0" devices="tripinfo_31" vType="DEFAULT_VEHTYPE" speedFactor="0.98" vaporized=""/>
    <tripinfo id="36" depart="144.00" departLane="left1A1_0" departPos="5.10" departSpeed="0.00" departDelay="0.00" arrival="224.00" arrivalLane="A0bottom0_0" arrivalPos="286.40" arrivalSpeed="11.73" duration="80.00" routeLength="879.60" waitingTime="1.00" waitingCount="1" stopTime="0.00" timeLoss="10.88" rerouteNo="0" devices="tripinfo_36" vType="DEFAULT_VEHTYPE" speedFactor="0.93" vaporized=""/>
    <tripinfo id="7" depart="36.00" departLane="top2C3_0" departPos="5.10" departSpeed="0.00" departDelay="0.00" arrival="231.00" arrivalLane="A2left2_0" arrivalPos="286.40" arrivalSpeed="12.30" duration="195.00" routeLength="1479.94" waitingTime="54.00" waitingCount="2" stopTime="0.00" timeLoss="79.83" rerouteNo="0" devices="tripinfo_7" vType="DEFAULT_VEHTYPE" speedFactor="0.93" vaporized=""/>
    <tripinfo id="6" depart="29.00" departLane="right1D1_0" departPos="5.10" departSpeed="0.00" departDelay="0.00" arrival="232.00" arrivalLane="A2left2_1" arrivalPos="286.40" arrivalSpeed="13.38" duration="203.00" routeLength="1782.72" waitingTime="41.00" waitingCount="4" stopTime="0.00" timeLoss="75.28" rerouteNo="0" devices="tripinfo_6" vType="DEFAULT_VEHTYPE" speedFactor="1.02" vaporized=""/>
    <tripinfo id="10" depart="52.00" departLane="right1D1_0" departPos="5.10" departSpeed="0.00" departDelay="0.00" arrival="234.00" arrivalLane="D3right3_0" arrivalPos="286.40" arrivalSpeed="11.32" duration="182.00" routeLength="1161.43" waitingTime="61.00" waitingCount="3" stopTime="0.00" timeLoss="83.72" rerouteNo="0" devices="tripinfo_10" vType="DEFAULT_VEHTYPE" speedFactor="0.86" vaporized=""/>
    <tripinfo id="12" depart="56.00" departLane="top3D3_0" departPos="5.10" departSpeed="0.00" departDelay="0.00" arrival="236.00" arrivalLane="D1right1_0" arrivalPos="286.40" arrivalSpeed="10.43" duration="180.00" routeLength="1197.89" waitingTime="49.00" waitingCount="2" stopTime="0.00" timeLoss="71.44" rerouteNo="0" devices="tripinfo_12" vType="DEFAULT_VEHTYPE" speedFactor="0.80" vaporized=""/>
    <tripinfo id="19" depart="96.00" departLane="left3A3_0" departPos="5.10" departSpeed="0.00" departDelay="0.00" arrival="236.00" arrivalLane="A0left0_0" arrivalPos="286.40" arrivalSpeed="14.07" duration="140.00" routeLength="1461.60" waitingTime="14.00" waitingCount="3" stopTime="0.00" timeLoss="36.73" rerouteNo="0" devices="tripinfo_19" vType="DEFAULT_VEHTYPE" speedFactor="1.03" vaporized=""/>
    <tripinfo id="13" depart="67.00" departLane="left2A2_0" departPos="5.10" departSpeed="0.00" departDelay="0.00" arrival="239.00" arrivalLane="B0bottom1_0" arrivalPos="286.40" arrivalSpeed="12.23" duration="172.00" routeLength="1479.94" waitingTime="40.00" waitingCount="2" stopTime="0.00" timeLoss="61.29" rerouteNo="0" devices="tripinfo_13" vType="DEFAULT_VEHTYPE" speedFactor="0.97" vaporized=""/>
    <tripinfo id="16" depart="74.00" departLane="right3D3_0" departPos="5.10" departSpeed="0.00" departDelay="0.00" arrival="261.00" arrivalLane="D1right1_0" arrivalPos="286.40" arrivalSpeed="12.26" duration="187.00" routeLength="1197.66" waitingTime="69.00" waitingCount="2" stopTime="0.00" timeLoss="94.86" rerouteNo="0" devices="tripinfo_16" vType="DEFAULT_VEHTYPE" speedFactor="0.95" vaporized=""/>
    <tripinfo id="45" depart="187.00" departLane="bottom0A0_0" departPos="5.10" departSpeed="0.00" departDelay="0.00" arrival="263.00" arrivalLane="B0bottom1_0" arrivalPos="286.40" arrivalSpeed="13.25" duration="76.00" routeLength="858.56" waitingTime="1.00" waitingCount="1" stopTime="0.00" timeLoss="15.32" rerouteNo="0" devices="tripinfo_45" vType="DEFAULT_VEHTYPE" speedFactor="1.04" vaporized=""/>
    <tripinfo id="30" depart="131.00" departLane="right3D3_0" departPos="5.10" departSpeed="0.00" departDelay="0.00" arrival="265.00" arrivalLane="B3top1_0" arrivalPos="286.40" arrivalSpeed="12.90" duration="134.00" routeLength="1177.07" waitingTime="26.00" waitingCount="3" stopTime="0.00" timeLoss="50.02" rerouteNo="0" devices="tripinfo_30" vType="DEFAULT_VEHTYPE" speedFactor="1.02" vaporized=""/>
    <tripinfo id="39" depart="165.00" departLane="left2A2_0" departPos="5.10" departSpeed="0.00" departDelay="0.00" arrival="268.00" arrivalLane="A0left0_0" arrivalPos="286.40" arrivalSpeed="12.30" duration="103.00" routeLength="1161.43" waitingTime="1.00" waitingCount="1" stopTime="0.00" timeLoss="15.35" rerouteNo="0" devices="tripinfo_39" vType="DEFAULT_VEHTYPE" speedFactor="0.97" vaporized=""/>
    <tripinfo id="28" depart="125.00" departLane="top2C3_0" departPos="5.10" departSpeed="0.00" departDelay="0.00" arrival="274.00" arrivalLane="D3top3_0" arrivalPos="286.40" arrivalSpeed="11.08" duration="149.00" routeLength="894.86" waitingTime="56.00" waitingCount="2" stopTime="0.00" timeLoss="72.63" rerouteNo="0" devices="tripinfo_28" vType="DEFAULT_VEHTYPE" speedFactor="0.86" vaporized=""/>
    <tripinfo id="43" depart="184.00" departLane="bottom2C0_0" departPos="5.10" departSpeed="0.00" departDelay="0.00" arrival="277.00" arrivalLane="D0right0_0" arrivalPos="286.40" arrivalSpeed="10.32" duration="93.00" routeLength="879.60" waitingTime="1.00" waitingCount="1" stopTime="0.00" timeLoss="13.58" rerouteNo="0" devices="tripinfo_43" vType="DEFAULT_VEHTYPE" speedFactor="0.81" vaporized=""/>
    <tripinfo id="26" depart="116.00" departLane="left2A2_0" departPos="5.10" departSpeed="0.00" departDelay="0.00" arrival="278.00" arrivalLane="C0bottom2_0" arrivalPos="286.40" arrivalSpeed="13.94" duration="162.00" routeLength="1780.11" waitingTime="15.00" waitingCount="3" stopTime="0.00" timeLoss="40.15" rerouteNo="0" devices="tripinfo_26" vType="DEFAULT_VEHTYPE" speedFactor="1.06" vaporized=""/>
    <tripinfo id="34" depart="141.00" departLane="left1A1_0" departPos="5.10" departSpeed="0.00" departDelay="0.00" arrival="280.00" arrivalLane="A3top0_0" arrivalPos="286.40" arrivalSpeed="13.40" duration="139.00" routeLength="1195.18" waitingTime="41.00" waitingCount="1" stopTime="0.00" timeLoss="55.98" rerouteNo="0" devices="tripinfo_34" vType="DEFAULT_VEHTYPE" speedFactor="1.05" vaporized=""/>
    <tripinfo id="21" depart="101.00" departLane="right1D1_0" departPos="5.10" departSpeed="0.00" departDelay="0.00" arrival="281.00" arrivalLane="D3top3_0" arrivalPos="286.40" arrivalSpeed="11.97" duration="180.00" routeLength="1179.77" waitingTime="60.00" waitingCount="3" stopTime="0.00" timeLoss="85.35" rerouteNo="0" devices="tripinfo_21" vType="DEFAULT_VEHTYPE" speedFactor="0.91" vaporized=""/>
    <tripinfo id="27" depart="121.00" departLane="top0A3_0" departPos="5.10" departSpeed="0.00" departDelay="0.00" arrival="289.00" arrivalLane="A1left1_0" arrivalPos="286.40" arrivalSpeed="12.60" duration="168.00" routeLength="1177.07" waitingTime="53.00" waitingCount="2" stopTime="0.00" timeLoss="80.78" rerouteNo="0" devices="tripinfo_27" vType="DEFAULT_VEHTYPE" speedFactor="0.99" vaporized=""/>
    <tripinfo id="17" depart="87.00" departLane="right0D0_0" departPos="5.10" departSpeed="0.00" departDelay="0.00" arrival="296.00" arrivalLane="A0left0_0" arrivalPos="286.40" arrivalSpeed="16.67" duration="209.00" routeLength="1495.58" waitingTime="86.00" waitingCount="4" stopTime="0.00" timeLoss="120.89" rerouteNo="0" devices="tripinfo_17" vType="DEFAULT_VEHTYPE" speedFactor="1.23" vaporized=""/>
    <tripinfo id="0" depart="5.00" departLane="right1D1_0" departPos="5.10" departSpeed="0.00" departDelay="0.00" arrival="298.00" arrivalLane="B3top1_0" arrivalPos="286.40" arrivalSpeed="14.41" duration="293.00" routeLength="1780.11" waitingTime="130.00" waitingCount="5" stopTime="0.00" timeLoss="168.99" rerouteNo="0" devices="tripinfo_0" vType="DEFAULT_VEHTYPE" speedFactor="1.04" vaporized=""/>
    <tripinfo id="22" depart="106.00" departLane="bottom1B0_0" departPos="5.10" departSpeed="0.00" departDelay="0.00" arrival="301.00" arrivalLane="B3top1_0" arrivalPos="286.40" arrivalSpeed="13.11" duration="195.00" routeLength="1495.58" waitingTime="68.00" waitingCount="2" stopTime="0.00" timeLoss="87.86" rerouteNo="0" devices="tripinfo_22" vType="DEFAULT_VEHTYPE" speedFactor="1.01" vaporized=""/>
    <tripinfo id="4" depart="22.00" departLane="bottom3D0_0" departPos="5.10" departSpeed="0.00" departDelay="0.00" arrival="305.00" arrivalLane="C3top2_0" arrivalPos="286.40" arrivalSpeed="10.42" duration="283.00" routeLength="1782.59" waitingTime="91.00" waitingCount="3" stopTime="0.00" timeLoss="119.72" rerouteNo="0" devices="tripinfo_4" vType="DEFAULT_VEHTYPE" speedFactor="0.80" vaporized=""/>
    <tripinfo id="49" depart="218.00" departLane="right0D0_0" departPos="5.10" departSpeed="0.00" departDelay="0.00" arrival="309.00" arrivalLane="D1right1_0" arrivalPos="286.40" arrivalSpeed="12.12" duration="91.00" routeLength="858.56" waitingTime="2.00" waitingCount="2" stopTime="0.00" timeLoss="18.97" rerouteNo="0" devices="tripinfo_49" vType="DEFAULT_VEHTYPE" speedFactor="0.88" vaporized=""/>
    <tripinfo id="3" depart="20.00" departLane="top3D3_0" departPos="5.10" departSpeed="0.00" departDelay="0.00" arrival="329.00" arrivalLane="A0bottom0_0" arrivalPos="286.40" arrivalSpeed="14.06" duration="309.00" routeLength="2382.93" waitingTime="98.00" waitingCount="5" stopTime="0.00" timeLoss="139.57" rerouteNo="0" devices="tripinfo_3" vType="DEFAULT_VEHTYPE" speedFactor="1.02" vaporized=""/>
    <tripinfo id="24" depart="114.00" departLane="top2C3_0" departPos="5.10" departSpeed="0.00" departDelay="0.00" arrival="335.00" arrivalLane="A0bottom0_0" arrivalPos="286.40" arrivalSpeed="11.68" duration="221.00" routeLength="2082.76" waitingTime="20.00" waitingCount="2" stopTime="0.00" timeLoss="48.14" rerouteNo="0" devices="tripinfo_24" vType="DEFAULT_VEHTYPE" speedFactor="0.88" vaporized=""/>
    <tripinfo id="50" depart="218.00" departLane="bottom2C0_0" departPos="5.10" departSpeed="0.00" departDelay="0.00" arrival="338.00" arrivalLane="B0bottom1_0" arrivalPos="286.40" arrivalSpeed="15.20" duration="120.00" routeLength="894.86" waitingTime="43.00" waitingCount="2" stopTime="0.00" timeLoss="60.58" rerouteNo="0" devices="tripinfo_50" vType="DEFAULT_VEHTYPE" speedFactor="1.12" vaporized=""/>
    <tripinfo id="41" depart="172.00" departLane="right3D3_0" departPos="5.10" departSpeed="0.00" departDelay="0.00" arrival="350.00" arrivalLane="A3top0_0" arrivalPos="286.40" arrivalSpeed="11.96" duration="178.00" routeLength="1477.24" waitingTime="38.00" waitingCount="2" stopTime="0.00" timeLoss="61.26" rerouteNo="0" devices="tripinfo_41" vType="DEFAULT_VEHTYPE" speedFactor="0.92" vaporized=""/>
    <tripinfo id="44" depart="185.00" departLane="left3A3_0" departPos="5.10" departSpeed="0.00" departDelay="0.00" arrival="353.00" arrivalLane="D3right3_0" arrivalPos="286.40" arrivalSpeed="13.63" duration="168.00" routeLength="1495.58" waitingTime="31.00" waitingCount="2" stopTime="0.00" timeLoss="59.66" rerouteNo="0" devices="tripinfo_44" vType="DEFAULT_VEHTYPE" speedFactor="1.00" vaporized=""/>
    <tripinfo id="32" depart="134.00" departLane="bottom1B0_0" departPos="5.10" departSpeed="0.00" departDelay="0.00" arrival="357.00" arrivalLane="B3top1_0" arrivalPos="286.40" arrivalSpeed="15.22" duration="223.00" routeLength="1495.58" waitingTime="91.00" waitingCount="4" stopTime="0.00" timeLoss="126.90" rerouteNo="0" devices="tripinfo_32" vType="DEFAULT_VEHTYPE" speedFactor="1.12" vaporized=""/>
    <tripinfo id="59" depart="261.00" departLane="left0A0_0" departPos="5.10" departSpeed="0.00" departDelay="0.00" arrival="360.00" arrivalLane="A1left1_0" arrivalPos="286.40" arrivalSpeed="12.97" duration="99.00" routeLength="894.86" waitingTime="16.00" waitingCount="2" stopTime="0.00" timeLoss="33.94" rerouteNo="0" devices="tripinfo_59" vType="DEFAULT_VEHTYPE" speedFactor="1.02" vaporized=""/>
    <tripinfo id="53" depart="223.00" departLane="bottom0A0_0" departPos="5.10" departSpeed="0.00" departDelay="0.00" arrival="362.00" arrivalLane="A2left2_0" arrivalPos="286.40" arrivalSpeed="13.53" duration="139.00" routeLength="1197.89" waitingTime="34.00" waitingCount="2" stopTime="0.00" timeLoss="54.11" rerouteNo="0" devices="tripinfo_53" vType="DEFAULT_VEHTYPE" speedFactor="1.03" vaporized=""/>
    <tripinfo id="8" depart="45.00" departLane="right1D1_0" departPos="5.10" departSpeed="0.00" departDelay="0.00" arrival="365.00" arrivalLane="A0bottom0_0" arrivalPos="286.40" arrivalSpeed="11.20" duration="320.00" routeLength="1795.52" waitingTime="124.00" waitingCount="5" stopTime="0.00" timeLoss="161.46" rerouteNo="0" devices="tripinfo_8" vType="DEFAULT_VEHTYPE" speedFactor="0.82" vaporized=""/>
    <tripinfo id="23" depart="109.00" departLane="top1B3_0" departPos="5.10" departSpeed="0.00" departDelay="0.00" arrival="378.00" arrivalLane="D0bottom3_0" arrivalPos="286.40" arrivalSpeed="14.56" duration="269.00" routeLength="2080.05" waitingTime="81.00" waitingCount="6" stopTime="0.00" timeLoss="126.79" rerouteNo="0" devices="tripinfo_23" vType="DEFAULT_VEHTYPE" speedFactor="1.06" vaporized=""/>
    <tripinfo id="60" depart="262.00" departLane="right2D2_0" departPos="5.10" departSpeed="0.00" departDelay="0.00" arrival="378.00" arrivalLane="D0right0_0" arrivalPos="286.40" arrivalSpeed="14.66" duration="116.00" routeLength="1197.66" waitingTime="12.00" waitingCount="1" stopTime="0.00" timeLoss="34.42" rerouteNo="0" devices="tripinfo_60" vType="DEFAULT_VEHTYPE" speedFactor="1.08" vaporized=""/>
    <tripinfo id="20" depart="100.00" departLane="right0D0_0" departPos="5.10" departSpeed="0.00" departDelay="0.00" arrival="381.00" arrivalLane="C3top2_0" arrivalPos="286.40" arrivalSpeed="11.68" duration="281.00" routeLength="1780.11" waitingTime="108.00" waitingCount="4" stopTime="0.00" timeLoss="140.66" rerouteNo="0" devices="tripinfo_20" vType="DEFAULT_VEHTYPE" speedFactor="0.92" vaporized=""/>
    <tripinfo id="61" depart="265.00" departLane="right2D2_0" departPos="5.10" departSpeed="0.00" departDelay="1.00" arrival="384.00" arrivalLane="D1right1_0" arrivalPos="286.40" arrivalSpeed="10.48" duration="119.00" routeLength="894.86" waitingTime="25.00" waitingCount="1" stopTime="0.00" timeLoss="38.54" rerouteNo="0" devices="tripinfo_61" vType="DEFAULT_VEHTYPE" speedFactor="0.81" vaporized=""/>
    <tripinfo id="38" depart="157.00" departLane="bottom3D0_0" departPos="5.10" departSpeed="0.00" departDelay="0.00" arrival="419.00" arrivalLane="D3right3_0" arrivalPos="286.40" arrivalSpeed="12.17" duration="262.00" routeLength="1477.24" waitingTime="118.00" waitingCount="4" stopTime="0.00" timeLoss="148.79" rerouteNo="0" devices="tripinfo_38" vType="DEFAULT_VEHTYPE" speedFactor="0.95" vaporized=""/>
    <tripinfo id="81" depart="333.00" departLane="left0A0_0" departPos="5.10" departSpeed="0.00" departDelay="0.00" arrival="423.00" arrivalLane="A1left1_0" arrivalPos="286.40" arrivalSpeed="10.93" duration="90.00" routeLength="894.86" waitingTime="0.00" waitingCount="0" stopTime="0.00" timeLoss="11.64" rerouteNo="0" devices="tripinfo_81" vType="DEFAULT_VEHTYPE" speedFactor="0.84" vaporized=""/>
    <tripinfo id="51" depart="219.00" departLane="left3A3_0" departPos="5.10" departSpeed="0.00" departDelay="0.00" arrival="430.00" arrivalLane="D3top3_0" arrivalPos="286.40" arrivalSpeed="13.41" duration="211.00" routeLength="1498.06" waitingTime="73.00" waitingCount="3" stopTime="0.00" timeLoss="99.38" rerouteNo="0" devices="tripinfo_51" vType="DEFAULT_VEHTYPE" speedFactor="0.97" vaporized=""/>
    <tripinfo id="65" depart="280.00" departLane="top1B3_0" departPos="5.10" departSpeed="0.00" departDelay="0.00" arrival="431.00" arrivalLane="D3top3_1" arrivalPos="286.40" arrivalSpeed="12.97" duration="151.00" routeLength="1197.66" waitingTime="45.00" waitingCount="1" stopTime="0.00" timeLoss="62.47" rerouteNo="0" devices="tripinfo_65" vType="DEFAULT_VEHTYPE" speedFactor="0.99" vaporized=""/>
    <tripinfo id="33" depart="136.00" departLane="bottom0A0_0" departPos="5.10" departSpeed="0.00" departDelay="0.00" arrival="442.00" arrivalLane="D3right3_0" arrivalPos="286.40" arrivalSpeed="12.54" duration="306.00" routeLength="2380.45" waitingTime="69.00" waitingCount="6" stopTime="0.00" timeLoss="118.06" rerouteNo="0" devices="tripinfo_33" vType="DEFAULT_VEHTYPE" speedFactor="0.92" vaporized=""/>
    <tripinfo id="42" depart="177.00" departLane="right0D0_0" departPos="5.10" departSpeed="0.00" departDelay="0.00" arrival="444.00" arrivalLane="A0left0_0" arrivalPos="286.40" arrivalSpeed="10.94" duration="267.00" routeLength="1495.58" waitingTime="111.00" waitingCount="3" stopTime="0.00" timeLoss="137.58" rerouteNo="0" devices="tripinfo_42" vType="DEFAULT_VEHTYPE" speedFactor="0.84" vaporized=""/>
    <tripinfo id="90" depart="376.00" departLane="bottom3D0_0" departPos="5.10" departSpeed="0.00" departDelay="0.00" arrival="454.00" arrivalLane="D1right1_0" arrivalPos="286.40" arrivalSpeed="14.44" duration="78.00" routeLength="876.90" waitingTime="2.00" waitingCount="2" stopTime="0.00" timeLoss="18.31" rerouteNo="0" devices="tripinfo_90" vType="DEFAULT_VEHTYPE" speedFactor="1.07" vaporized=""/>
    <tripinfo id="55" depart="229.00" departLane="bottom3D0_0" departPos="5.10" departSpeed="0.00" departDelay="0.00" arrival="458.00" arrivalLane="D3top3_0" arrivalPos="286.40" arrivalSpeed="14.66" duration="229.00" routeLength="1495.58" waitingTime="90.00" waitingCount="3" stopTime="0.00" timeLoss="131.17" rerouteNo="0" devices="tripinfo_55" vType="DEFAULT_VEHTYPE" speedFactor="1.11" vaporized=""/>
    <tripinfo id="76" depart="320.00" departLane="right0D0_0" departPos="5.10" departSpeed="0.00" departDelay="0.00" arrival="459.00" arrivalLane="D3top3_0" arrivalPos="286.40" arrivalSpeed="15.42" duration="139.00" routeLength="1479.94" waitingTime="20.00" waitingCount="2" stopTime="0.00" timeLoss="42.46" rerouteNo="0" devices="tripinfo_76" vType="DEFAULT_VEHTYPE" speedFactor="1.11" vaporized=""/>
    <tripinfo id="89" depart="370.00" departLane="right2D2_0" departPos="5.10" departSpeed="0.00" departDelay="0.00" arrival="465.00" arrivalLane="D3top3_0" arrivalPos="286.40" arrivalSpeed="12.30" duration="95.00" routeLength="879.60" waitingTime="9.00" waitingCount="2" stopTime="0.00" timeLoss="25.90" rerouteNo="0" devices="tripinfo_89" vType="DEFAULT_VEHTYPE" speedFactor="0.93" vaporized=""/>
    <tripinfo id="99" depart="408.00" departLane="left0A0_0" departPos="5.10" departSpeed="0.00" departDelay="0.00" arrival="466.00" arrivalLane="A0bottom0_0" arrivalPos="286.40" arrivalSpeed="12.11" duration="58.00" routeLength="576.73" waitingTime="1.00" waitingCount="1" stopTime="0.00" timeLoss="11.76" rerouteNo="0" devices="tripinfo_99" vType="DEFAULT_VEHTYPE" speedFactor="0.92" vaporized=""/>
    <tripinfo id="18" depart="95.00" departLane="right2D2_0" departPos="5.10" departSpeed="0.00" departDelay="0.00" arrival="467.00" arrivalLane="A0bottom0_1" arrivalPos="286.40" arrivalSpeed="16.06" duration="372.00" routeLength="2095.69" waitingTime="195.00" waitingCount="6" stopTime="0.00" timeLoss="240.82" rerouteNo="0" devices="tripinfo_18" vType="DEFAULT_VEHTYPE" speedFactor="1.16" vaporized=""/>
    <tripinfo id="35" depart="143.00" departLane="right3D3_0" departPos="5.10" departSpeed="0.00" departDelay="0.00" arrival="470.00" arrivalLane="A0bottom0_0" arrivalPos="286.40" arrivalSpeed="13.83" duration="327.00" routeLength="2395.86" waitingTime="108.00" waitingCount="7" stopTime="0.00" timeLoss="164.86" rerouteNo="0" devices="tripinfo_35" vType="DEFAULT_VEHTYPE" speedFactor="1.07" vaporized=""/>
    <tripinfo id="52" depart="221.00" departLane="top3D3_0" departPos="5.10" departSpeed="0.00" departDelay="0.00" arrival="470.00" arrivalLane="A2left2_0" arrivalPos="286.40" arrivalSpeed="12.56" duration="249.00" routeLength="1780.11" waitingTime="77.00" waitingCount="3" stopTime="0.00" timeLoss="112.32" rerouteNo="0" devices="tripinfo_52" vType="DEFAULT_VEHTYPE" speedFactor="0.94" vaporized=""/>
    <tripinfo id="54" depart="229.00" departLane="top1B3_0" departPos="5.10" departSpeed="0.00" departDelay="0.00" arrival="474.00" arrivalLane="A0bottom0_0" arrivalPos="286.40" arrivalSpeed="13.74" duration="245.00" routeLength="1782.72" waitingTime="79.00" waitingCount="4" stopTime="0.00" timeLoss="115.02" rerouteNo="0" devices="tripinfo_54" vType="DEFAULT_VEHTYPE" speedFactor="1.00" vaporized=""/>
    <tripinfo id="48" depart="209.00" departLane="right2D2_0" departPos="5.10" departSpeed="0.00" departDelay="0.00" arrival="481.00" arrivalLane="A0left0_1" arrivalPos="286.40" arrivalSpeed="12.85" duration="272.00" routeLength="2080.05" waitingTime="57.00" waitingCount="4" stopTime="0.00" timeLoss="122.75" rerouteNo="0" devices="tripinfo_48" vType="DEFAULT_VEHTYPE" speedFactor="1.02" vaporized=""/>
    <tripinfo id="47" depart="207.00" departLane="right3D3_0" departPos="5.10" departSpeed="0.00" departDelay="0.00" arrival="483.00" arrivalLane="A0left0_1" arrivalPos="286.40" arrivalSpeed="13.04" duration="276.00" routeLength="2380.22" waitingTime="40.00" waitingCount="4" stopTime="0.00" timeLoss="99.44" rerouteNo="0" devices="tripinfo_47" vType="DEFAULT_VEHTYPE" speedFactor="0.98" vaporized=""/>
    <tripinfo id="40" depart="165.00" departLane="right2D2_0" departPos="5.10" departSpeed="0.00" departDelay="0.00" arrival="484.00" arrivalLane="A0left0_0" arrivalPos="286.40" arrivalSpeed="10.51" duration="319.00" routeLength="2080.05" waitingTime="99.00" waitingCount="4" stopTime="0.00" timeLoss="129.37" rerouteNo="0" devices="tripinfo_40" vType="DEFAULT_VEHTYPE" speedFactor="0.80" vaporized=""/>
    <tripinfo id="58" depart="245.00" departLane="right2D2_0" departPos="5.10" departSpeed="0.00" departDelay="0.00" arrival="488.00" arrivalLane="B0bottom1_0" arrivalPos="286.40" arrivalSpeed="13.42" duration="243.00" routeLength="1795.52" waitingTime="85.00" waitingCount="3" stopTime="0.00" timeLoss="112.02" rerouteNo="0" devices="tripinfo_58" vType="DEFAULT_VEHTYPE" speedFactor="0.99" vaporized=""/>
    <tripinfo id="73" depart="306.00" departLane="right2D2_0" departPos="5.10" departSpeed="0.00" departDelay="0.00" arrival="489.00" arrivalLane="B0bottom1_1" arrivalPos="286.40" arrivalSpeed="13.48" duration="183.00" routeLength="1795.52" waitingTime="28.00" waitingCount="3" stopTime="0.00" timeLoss="57.49" rerouteNo="0" devices="tripinfo_73" vType="DEFAULT_VEHTYPE" speedFactor="1.04" vaporized=""/>
    <tripinfo id="78" depart="323.00" departLane="top0A3_0" departPos="5.10" departSpeed="0.00" departDelay="0.00" arrival="489.00" arrivalLane="D3right3_1" arrivalPos="286.40" arrivalSpeed="14.90" duration="166.00" routeLength="1495.35" waitingTime="36.00" waitingCount="2" stopTime="0.00" timeLoss="70.08" rerouteNo="0" devices="tripinfo_78" vType="DEFAULT_VEHTYPE" speedFactor="1.13" vaporized=""/>
    <tripinfo id="46" depart="204.00" departLane="bottom1B0_0" departPos="5.10" departSpeed="0.00" departDelay="0.00" arrival="491.00" arrivalLane="D3right3_0" arrivalPos="286.40" arrivalSpeed="11.92" duration="287.00" routeLength="2080.28" waitingTime="83.00" waitingCount="4" stopTime="0.00" timeLoss="124.49" rerouteNo="0" devices="tripinfo_46" vType="DEFAULT_VEHTYPE" speedFactor="0.93" vaporized=""/>
    <tripinfo id="62" depart="272.00" departLane="right3D3_0" departPos="5.10" departSpeed="0.00" departDelay="0.00" arrival="506.00" arrivalLane="D0right0_0" arrivalPos="286.40" arrivalSpeed="15.26" duration="234.00" routeLength="1497.83" waitingTime="113.00" waitingCount="3" stopTime="0.00" timeLoss="139.12" rerouteNo="0" devices="tripinfo_62" vType="DEFAULT_VEHTYPE" speedFactor="1.15" vaporized=""/>
    <tripinfo id="77" depart="322.00" departLane="left2A2_0" departPos="5.10" departSpeed="0.00" departDelay="0.00" arrival="511.00" arrivalLane="A2left2_1" arrivalPos="286.40" arrivalSpeed="13.33" duration="189.00" routeLength="1748.75" waitingTime="30.00" waitingCount="4" stopTime="0.00" timeLoss="66.65" rerouteNo="0" devices="tripinfo_77" vType="DEFAULT_VEHTYPE" speedFactor="1.05" vaporized=""/>
    <tripinfo id="87" depart="367.00" departLane="bottom3D0_0" departPos="5.10" departSpeed="0.00" departDelay="0.00" arrival="511.00" arrivalLane="A0bottom0_0" arrivalPos="286.40" arrivalSpeed="12.27" duration="144.00" routeLength="1497.83" waitingTime="8.00" waitingCount="2" stopTime="0.00" timeLoss="29.10" rerouteNo="0" devices="tripinfo_87" vType="DEFAULT_VEHTYPE" speedFactor="0.95" vaporized=""/>
    <tripinfo id="70" depart="301.00" departLane="bottom0A0_0" departPos="5.10" departSpeed="0.00" departDelay="0.00" arrival="515.00" arrivalLane="A2left2_0" arrivalPos="286.40" arrivalSpeed="11.29" duration="214.00" routeLength="1197.89" waitingTime="91.00" waitingCount="2" stopTime="0.00" timeLoss="106.58" rerouteNo="0" devices="tripinfo_70" vType="DEFAULT_VEHTYPE" speedFactor="0.81" vaporized=""/>