<?xml version="1.0" encoding="UTF-8"?>

<!-- generated on 12/19/21 11:35:37 by Eclipse SUMO sumo Version 1.7.0
<configuration xmlns:xsi="http://www.w3.org/2001/XMLSchema-instance" xsi:noNamespaceSchemaLocation="http://sumo.dlr.de/xsd/sumoConfiguration.xsd">

    <input>
        <net-file value="C:\Users\longs\Desktop\RESCO-main\environments\grid4x4\grid4x4.net.xml"/>
        <route-files value="C:\Users\longs\Desktop\RESCO-main\environments\grid4x4\grid4x4_49.rou.xml"/>
    </input>

    <output>
        <tripinfo-output value="C:\Users\longs\Desktop\RESCO-main\logs\IDQN-tr1-grid4x4-0-drqlong-delaydiff_pressure01\tripinfo_49.xml"/>
        <tripinfo-output.write-unfinished value="true"/>
    </output>

    <processing>
        <time-to-teleport value="-1"/>
    </processing>

    <report>
        <no-warnings value="true"/>
        <no-step-log value="true"/>
    </report>

    <traci_server>
        <remote-port value="56340"/>
    </traci_server>

    <random_number>
        <random value="true"/>
    </random_number>

</configuration>
-->

<tripinfos xmlns:xsi="http://www.w3.org/2001/XMLSchema-instance" xsi:noNamespaceSchemaLocation="http://sumo.dlr.de/xsd/tripinfo_file.xsd">
    <tripinfo id="3" depart="7.00" departLane="bottom2C0_0" departPos="5.10" departSpeed="0.00" departDelay="0.00" arrival="83.00" arrivalLane="D0bottom3_0" arrivalPos="286.40" arrivalSpeed="13.51" duration="76.00" routeLength="858.56" waitingTime="1.00" waitingCount="1" stopTime="0.00" timeLoss="15.29" rerouteNo="0" devices="tripinfo_3" vType="DEFAULT_VEHTYPE" speedFactor="1.03" vaporized=""/>
    <tripinfo id="5" depart="18.00" departLane="right2D2_0" departPos="5.10" departSpeed="0.00" departDelay="0.00" arrival="100.00" arrivalLane="D3right3_0" arrivalPos="286.40" arrivalSpeed="13.01" duration="82.00" routeLength="858.56" waitingTime="1.00" waitingCount="1" stopTime="0.00" timeLoss="14.86" rerouteNo="0" devices="tripinfo_5" vType="DEFAULT_VEHTYPE" speedFactor="0.94" vaporized=""/>
    <tripinfo id="9" depart="45.00" departLane="bottom2C0_0" departPos="5.10" departSpeed="0.00" departDelay="0.00" arrival="115.00" arrivalLane="D0right0_0" arrivalPos="286.40" arrivalSpeed="16.91" duration="70.00" routeLength="879.60" waitingTime="1.00" waitingCount="1" stopTime="0.00" timeLoss="19.53" rerouteNo="0" devices="tripinfo_9" vType="DEFAULT_VEHTYPE" speedFactor="1.27" vaporized=""/>
    <tripinfo id="2" depart="6.00" departLane="bottom1B0_0" departPos="5.10" departSpeed="0.00" departDelay="0.00" arrival="128.00" arrivalLane="A0left0_0" arrivalPos="286.40" arrivalSpeed="14.84" duration="122.00" routeLength="895.01" waitingTime="42.00" waitingCount="2" stopTime="0.00" timeLoss="61.11" rerouteNo="0" devices="tripinfo_2" vType="DEFAULT_VEHTYPE" speedFactor="1.08" vaporized=""/>
    <tripinfo id="4" depart="16.00" departLane="left1A1_0" departPos="5.10" departSpeed="0.00" departDelay="0.00" arrival="161.00" arrivalLane="A3top0_0" arrivalPos="286.40" arrivalSpeed="12.30" duration="145.00" routeLength="1195.18" waitingTime="25.00" waitingCount="3" stopTime="0.00" timeLoss="49.80" rerouteNo="0" devices="tripinfo_4" vType="DEFAULT_VEHTYPE" speedFactor="0.91" vaporized=""/>
    <tripinfo id="0" depart="3.00" departLane="left3A3_0" departPos="5.10" departSpeed="0.00" departDelay="0.00" arrival="166.00" arrivalLane="A0left0_0" arrivalPos="286.40" arrivalSpeed="13.76" duration="163.00" routeLength="1461.60" waitingTime="28.00" waitingCount="4" stopTime="0.00" timeLoss="59.63" rerouteNo="0" devices="tripinfo_0" vType="DEFAULT_VEHTYPE" speedFactor="1.04" vaporized=""/>
    <tripinfo id="13" depart="62.00" departLane="bottom3D0_0" departPos="5.10" departSpeed="0.00" departDelay="0.00" arrival="179.00" arrivalLane="D2right2_0" arrivalPos="286.40" arrivalSpeed="11.93" duration="117.00" routeLength="1177.07" waitingTime="4.00" waitingCount="1" stopTime="0.00" timeLoss="21.38" rerouteNo="0" devices="tripinfo_13" vType="DEFAULT_VEHTYPE" speedFactor="0.89" vaporized=""/>
    <tripinfo id="20" depart="82.00" departLane="right3D3_0" departPos="5.10" departSpeed="0.00" departDelay="0.00" arrival="185.00" arrivalLane="C3top2_0" arrivalPos="286.40" arrivalSpeed="11.04" duration="103.00" routeLength="876.90" waitingTime="11.00" waitingCount="2" stopTime="0.00" timeLoss="26.57" rerouteNo="0" devices="tripinfo_20" vType="DEFAULT_VEHTYPE" speedFactor="0.84" vaporized=""/>
    <tripinfo id="6" depart="29.00" departLane="right1D1_0" departPos="5.10" departSpeed="0.00" departDelay="0.00" arrival="187.00" arrivalLane="C0bottom2_0" arrivalPos="286.40" arrivalSpeed="14.79" duration="158.00" routeLength="1195.18" waitingTime="54.00" waitingCount="3" stopTime="0.00" timeLoss="78.54" rerouteNo="0" devices="tripinfo_6" vType="DEFAULT_VEHTYPE" speedFactor="1.09" vaporized=""/>
    <tripinfo id="7" depart="34.00" departLane="right0D0_0" departPos="5.10" departSpeed="0.00" departDelay="0.00" arrival="187.00" arrivalLane="A0bottom0_0" arrivalPos="286.40" arrivalSpeed="15.08" duration="153.00" routeLength="1498.06" waitingTime="24.00" waitingCount="4" stopTime="0.00" timeLoss="56.01" rerouteNo="0" devices="tripinfo_7" vType="DEFAULT_VEHTYPE" speedFactor="1.12" vaporized=""/>
    <tripinfo id="1" depart="5.00" departLane="top1B3_0" departPos="5.10" departSpeed="0.00" departDelay="0.00" arrival="199.00" arrivalLane="B0bottom1_0" arrivalPos="286.40" arrivalSpeed="13.84" duration="194.00" routeLength="1495.58" waitingTime="53.00" waitingCount="4" stopTime="0.00" timeLoss="86.54" rerouteNo="0" devices="tripinfo_1" vType="DEFAULT_VEHTYPE" speedFactor="1.01" vaporized=""/>
    <tripinfo id="31" depart="131.00" departLane="bottom1B0_0" departPos="5.10" departSpeed="0.00" departDelay="0.00" arrival="214.00" arrivalLane="C0bottom2_0" arrivalPos="286.40" arrivalSpeed="12.86" duration="83.00" routeLength="858.56" waitingTime="2.00" waitingCount="2" stopTime="0.00" timeLoss="17.53" rerouteNo="0" devices="tripinfo_31" vType="DEFAULT_VEHTYPE" speedFactor="0.96" vaporized=""/>
    <tripinfo id="11" depart="54.00" departLane="left0A0_0" departPos="5.10" departSpeed="0.00" departDelay="0.00" arrival="220.00" arrivalLane="A3left3_0" arrivalPos="286.40" arrivalSpeed="13.14" duration="166.00" routeLength="1497.83" waitingTime="28.00" waitingCount="3" stopTime="0.00" timeLoss="53.25" rerouteNo="0" devices="tripinfo_11" vType="DEFAULT_VEHTYPE" speedFactor="0.97" vaporized=""/>
    <tripinfo id="14" depart="63.00" departLane="bottom0A0_0" departPos="5.10" departSpeed="0.00" departDelay="0.00" arrival="223.00" arrivalLane="D0right0_0" arrivalPos="286.40" arrivalSpeed="10.43" duration="160.00" routeLength="1479.94" waitingTime="10.00" waitingCount="2" stopTime="0.00" timeLoss="31.68" rerouteNo="0" devices="tripinfo_14" vType="DEFAULT_VEHTYPE" speedFactor="0.84" vaporized=""/>
    <tripinfo id="16" depart="66.00" departLane="right1D1_0" departPos="5.10" departSpeed="0.00" departDelay="0.00" arrival="225.00" arrivalLane="B0bottom1_0" arrivalPos="286.40" arrivalSpeed="11.66" duration="159.00" routeLength="1495.35" waitingTime="18.00" waitingCount="2" stopTime="0.00" timeLoss="42.26" rerouteNo="0" devices="tripinfo_16" vType="DEFAULT_VEHTYPE" speedFactor="0.93" vaporized=""/>
    <tripinfo id="8" depart="42.00" departLane="left1A1_0" departPos="5.10" departSpeed="0.00" departDelay="0.00" arrival="228.00" arrivalLane="D0bottom3_0" arrivalPos="286.40" arrivalSpeed="13.80" duration="186.00" routeLength="1780.11" waitingTime="31.00" waitingCount="3" stopTime="0.00" timeLoss="59.43" rerouteNo="0" devices="tripinfo_8" vType="DEFAULT_VEHTYPE" speedFactor="1.02" vaporized=""/>
    <tripinfo id="19" depart="79.00" departLane="bottom0A0_0" departPos="5.10" departSpeed="0.00" departDelay="0.00" arrival="231.00" arrivalLane="A2left2_1" arrivalPos="286.40" arrivalSpeed="13.74" duration="152.00" routeLength="1197.89" waitingTime="40.00" waitingCount="2" stopTime="0.00" timeLoss="68.67" rerouteNo="0" devices="tripinfo_19" vType="DEFAULT_VEHTYPE" speedFactor="1.05" vaporized=""/>
    <tripinfo id="24" depart="102.00" departLane="left0A0_0" departPos="5.10" departSpeed="0.00" departDelay="0.00" arrival="231.00" arrivalLane="A2left2_0" arrivalPos="286.40" arrivalSpeed="12.70" duration="129.00" routeLength="1197.66" waitingTime="13.00" waitingCount="2" stopTime="0.00" timeLoss="36.17" rerouteNo="0" devices="tripinfo_24" vType="DEFAULT_VEHTYPE" speedFactor="0.95" vaporized=""/>
    <tripinfo id="29" depart="123.00" departLane="bottom0A0_0" departPos="5.10" departSpeed="0.00" departDelay="0.00" arrival="232.00" arrivalLane="A2left2_0" arrivalPos="286.40" arrivalSpeed="13.89" duration="109.00" routeLength="1197.89" waitingTime="2.00" waitingCount="1" stopTime="0.00" timeLoss="27.77" rerouteNo="0" devices="tripinfo_29" vType="DEFAULT_VEHTYPE" speedFactor="1.07" vaporized=""/>
    <tripinfo id="25" depart="102.00" departLane="top2C3_0" departPos="5.10" departSpeed="0.00" departDelay="0.00" arrival="248.00" arrivalLane="A3left3_0" arrivalPos="286.40" arrivalSpeed="14.33" duration="146.00" routeLength="1179.77" waitingTime="41.00" waitingCount="3" stopTime="0.00" timeLoss="62.95" rerouteNo="0" devices="tripinfo_25" vType="DEFAULT_VEHTYPE" speedFactor="1.04" vaporized=""/>
    <tripinfo id="10" depart="46.00" departLane="left2A2_0" departPos="5.10" departSpeed="0.00" departDelay="0.00" arrival="257.00" arrivalLane="C3top2_0" arrivalPos="286.40" arrivalSpeed="9.93" duration="211.00" routeLength="1495.35" waitingTime="38.00" waitingCount="4" stopTime="0.00" timeLoss="66.62" rerouteNo="0" devices="tripinfo_10" vType="DEFAULT_VEHTYPE" speedFactor="0.75" vaporized=""/>
    <tripinfo id="26" depart="106.00" departLane="right3D3_0" departPos="5.10" departSpeed="0.00" departDelay="0.00" arrival="262.00" arrivalLane="D0bottom3_0" arrivalPos="286.40" arrivalSpeed="13.64" duration="156.00" routeLength="1495.35" waitingTime="23.00" waitingCount="3" stopTime="0.00" timeLoss="47.47" rerouteNo="0" devices="tripinfo_26" vType="DEFAULT_VEHTYPE" speedFactor="1.00" vaporized=""/>
    <tripinfo id="17" depart="66.00" departLane="top2C3_0" departPos="5.10" departSpeed="0.00" departDelay="0.00" arrival="263.00" arrivalLane="C3top2_0" arrivalPos="286.40" arrivalSpeed="11.38" duration="197.00" routeLength="1748.75" waitingTime="16.00" waitingCount="3" stopTime="0.00" timeLoss="42.74" rerouteNo="0" devices="tripinfo_17" vType="DEFAULT_VEHTYPE" speedFactor="0.83" vaporized=""/>
    <tripinfo id="47" depart="215.00" departLane="right3D3_0" departPos="5.10" departSpeed="0.00" departDelay="0.00" arrival="263.00" arrivalLane="D3top3_0" arrivalPos="286.40" arrivalSpeed="15.31" duration="48.00" routeLength="576.73" waitingTime="1.00" waitingCount="1" stopTime="0.00" timeLoss="11.16" rerouteNo="0" devices="tripinfo_47" vType="DEFAULT_VEHTYPE" speedFactor="1.15" vaporized=""/>
    <tripinfo id="12" depart="58.00" departLane="top3D3_0" departPos="5.10" departSpeed="0.00" departDelay="0.00" arrival="269.00" arrivalLane="A2left2_0" arrivalPos="286.40" arrivalSpeed="13.26" duration="211.00" routeLength="1780.11" waitingTime="52.00" waitingCount="3" stopTime="0.00" timeLoss="81.24" rerouteNo="0" devices="tripinfo_12" vType="DEFAULT_VEHTYPE" speedFactor="0.99" vaporized=""/>
    <tripinfo id="15" depart="64.00" departLane="bottom2C0_0" departPos="5.10" departSpeed="0.00" departDelay="0.00" arrival="270.00" arrivalLane="D2right2_0" arrivalPos="286.40" arrivalSpeed="12.86" duration="206.00" routeLength="1479.94" waitingTime="74.00" waitingCount="3" stopTime="0.00" timeLoss="97.74" rerouteNo="0" devices="tripinfo_15" vType="DEFAULT_VEHTYPE" speedFactor="0.99" vaporized=""/>
    <tripinfo id="18" depart="68.00" departLane="bottom0A0_0" departPos="5.10" departSpeed="0.00" departDelay="0.00" arrival="274.00" arrivalLane="D0bottom3_0" arrivalPos="286.40" arrivalSpeed="9.54" duration="206.00" routeLength="1461.60" waitingTime="36.00" waitingCount="3" stopTime="0.00" timeLoss="60.20" rerouteNo="0" devices="tripinfo_18" vType="DEFAULT_VEHTYPE" speedFactor="0.73" vaporized=""/>
    <tripinfo id="42" depart="201.00" departLane="left1A1_0" departPos="5.10" departSpeed="0.00" departDelay="0.00" arrival="276.00" arrivalLane="A0bottom0_0" arrivalPos="286.40" arrivalSpeed="14.21" duration="75.00" routeLength="879.60" waitingTime="1.00" waitingCount="1" stopTime="0.00" timeLoss="13.75" rerouteNo="0" devices="tripinfo_42" vType="DEFAULT_VEHTYPE" speedFactor="1.05" vaporized=""/>
    <tripinfo id="21" depart="86.00" departLane="left0A0_0" departPos="5.10" departSpeed="0.00" departDelay="0.00" arrival="278.00" arrivalLane="A0left0_0" arrivalPos="286.40" arrivalSpeed="10.40" duration="192.00" routeLength="1745.91" waitingTime="18.00" waitingCount="2" stopTime="0.00" timeLoss="38.58" rerouteNo="0" devices="tripinfo_21" vType="DEFAULT_VEHTYPE" speedFactor="0.84" vaporized=""/>
    <tripinfo id="27" depart="114.00" departLane="right2D2_0" departPos="5.10" departSpeed="0.00" departDelay="0.00" arrival="278.00" arrivalLane="B0bottom1_0" arrivalPos="286.40" arrivalSpeed="14.88" duration="164.00" routeLength="1795.52" waitingTime="20.00" waitingCount="3" stopTime="0.00" timeLoss="44.12" rerouteNo="0" devices="tripinfo_27" vType="DEFAULT_VEHTYPE" speedFactor="1.08" vaporized=""/>
    <tripinfo id="40" depart="170.00" departLane="left0A0_0" departPos="5.10" departSpeed="0.00" departDelay="0.00" arrival="289.00" arrivalLane="A1left1_0" arrivalPos="286.40" arrivalSpeed="13.55" duration="119.00" routeLength="894.86" waitingTime="38.00" waitingCount="2" stopTime="0.00" timeLoss="54.35" rerouteNo="0" devices="tripinfo_40" vType="DEFAULT_VEHTYPE" speedFactor="1.02" vaporized=""/>
    <tripinfo id="43" depart="201.00" departLane="top1B3_0" departPos="5.10" departSpeed="0.00" departDelay="0.00" arrival="299.00" arrivalLane="C3top2_0" arrivalPos="286.40" arrivalSpeed="13.42" duration="98.00" routeLength="894.86" waitingTime="16.00" waitingCount="2" stopTime="0.00" timeLoss="35.32" rerouteNo="0" devices="tripinfo_43" vType="DEFAULT_VEHTYPE" speedFactor="1.05" vaporized=""/>
    <tripinfo id="28" depart="120.00" departLane="left3A3_0" departPos="5.10" departSpeed="0.00" departDelay="0.00" arrival="301.00" arrivalLane="D3top3_0" arrivalPos="286.40" arrivalSpeed="12.04" duration="181.00" routeLength="1498.06" waitingTime="38.00" waitingCount="4" stopTime="0.00" timeLoss="65.36" rerouteNo="0" devices="tripinfo_28" vType="DEFAULT_VEHTYPE" speedFactor="0.94" vaporized=""/>
    <tripinfo id="35" depart="141.00" departLane="top3D3_0" departPos="5.10" departSpeed="0.00" departDelay="0.00" arrival="309.00" arrivalLane="D1right1_0" arrivalPos="286.40" arrivalSpeed="13.86" duration="168.00" routeLength="1197.89" waitingTime="59.00" waitingCount="3" stopTime="0.00" timeLoss="83.80" rerouteNo="0" devices="tripinfo_35" vType="DEFAULT_VEHTYPE" speedFactor="1.04" vaporized=""/>
    <tripinfo id="37" depart="153.00" departLane="top3D3_0" departPos="5.10" departSpeed="0.00" departDelay="0.00" arrival="312.00" arrivalLane="D1right1_0" arrivalPos="286.40" arrivalSpeed="13.40" duration="159.00" routeLength="1197.89" waitingTime="47.00" waitingCount="3" stopTime="0.00" timeLoss="71.32" rerouteNo="0" devices="tripinfo_37" vType="DEFAULT_VEHTYPE" speedFactor="1.00" vaporized=""/>
    <tripinfo id="30" depart="125.00" departLane="left2A2_0" departPos="5.10" departSpeed="0.00" departDelay="0.00" arrival="318.00" arrivalLane="D1right1_0" arrivalPos="286.40" arrivalSpeed="13.17" duration="193.00" routeLength="1782.72" waitingTime="36.00" waitingCount="4" stopTime="0.00" timeLoss="67.30" rerouteNo="0" devices="tripinfo_30" vType="DEFAULT_VEHTYPE" speedFactor="1.03" vaporized=""/>
    <tripinfo id="38" depart="154.00" departLane="right1D1_0" departPos="5.10" departSpeed="0.00" departDelay="0.00" arrival="320.00" arrivalLane="A1left1_0" arrivalPos="286.40" arrivalSpeed="12.88" duration="166.00" routeLength="1495.58" waitingTime="27.00" waitingCount="2" stopTime="0.00" timeLoss="52.74" rerouteNo="0" devices="tripinfo_38" vType="DEFAULT_VEHTYPE" speedFactor="0.95" vaporized=""/>
    <tripinfo id="33" depart="138.00" departLane="right2D2_0" departPos="5.10" departSpeed="0.00" departDelay="0.00" arrival="321.00" arrivalLane="B0bottom1_0" arrivalPos="286.40" arrivalSpeed="11.94" duration="183.00" routeLength="1795.52" waitingTime="11.00" waitingCount="3" stopTime="0.00" timeLoss="39.48" rerouteNo="0" devices="tripinfo_33" vType="DEFAULT_VEHTYPE" speedFactor="0.91" vaporized=""/>
    <tripinfo id="55" depart="270.00" departLane="right0D0_0" departPos="5.10" departSpeed="0.00" departDelay="0.00" arrival="328.00" arrivalLane="D0bottom3_0" arrivalPos="286.40" arrivalSpeed="14.66" duration="58.00" routeLength="597.55" waitingTime="7.00" waitingCount="1" stopTime="0.00" timeLoss="18.72" rerouteNo="0" devices="tripinfo_55" vType="DEFAULT_VEHTYPE" speedFactor="1.13" vaporized=""/>
    <tripinfo id="23" depart="99.00" departLane="left1A1_0" departPos="5.10" departSpeed="0.00" departDelay="0.00" arrival="329.00" arrivalLane="D3right3_0" arrivalPos="286.40" arrivalSpeed="14.13" duration="230.00" routeLength="2080.05" waitingTime="47.00" waitingCount="4" stopTime="0.00" timeLoss="88.89" rerouteNo="0" devices="tripinfo_23" vType="DEFAULT_VEHTYPE" speedFactor="1.08" vaporized=""/>
    <tripinfo id="22" depart="93.00" departLane="right1D1_0" departPos="5.10" departSpeed="0.00" departDelay="0.00" arrival="333.00" arrivalLane="A3left3_0" arrivalPos="286.40" arrivalSpeed="10.95" duration="240.00" routeLength="2082.76" waitingTime="26.00" waitingCount="4" stopTime="0.00" timeLoss="66.99" rerouteNo="0" devices="tripinfo_22" vType="DEFAULT_VEHTYPE" speedFactor="0.87" vaporized=""/>
    <tripinfo id="34" depart="139.00" departLane="left2A2_0" departPos="5.10" departSpeed="0.00" departDelay="0.00" arrival="346.00" arrivalLane="A2left2_0" arrivalPos="286.40" arrivalSpeed="10.09" duration="207.00" routeLength="1748.75" waitingTime="9.00" waitingCount="3" stopTime="0.00" timeLoss="43.71" rerouteNo="0" devices="tripinfo_34" vType="DEFAULT_VEHTYPE" speedFactor="0.79" vaporized=""/>
    <tripinfo id="51" depart="232.00" departLane="right2D2_0" departPos="5.10" departSpeed="0.00" departDelay="0.00" arrival="346.00" arrivalLane="C3top2_0" arrivalPos="286.40" arrivalSpeed="11.29" duration="114.00" routeLength="1179.77" waitingTime="0.00" waitingCount="0" stopTime="0.00" timeLoss="16.01" rerouteNo="0" devices="tripinfo_51" vType="DEFAULT_VEHTYPE" speedFactor="0.88" vaporized=""/>
    <tripinfo id="45" depart="208.00" departLane="bottom2C0_0" departPos="5.10" departSpeed="0.00" departDelay="0.00" arrival="351.00" arrivalLane="A0left0_0" arrivalPos="286.40" arrivalSpeed="11.64" duration="143.00" routeLength="1195.18" waitingTime="26.00" waitingCount="3" stopTime="0.00" timeLoss="47.21" rerouteNo="0" devices="tripinfo_45" vType="DEFAULT_VEHTYPE" speedFactor="0.91" vaporized=""/>
    <tripinfo id="52" depart="232.00" departLane="left3A3_0" departPos="5.10" departSpeed="0.00" departDelay="0.00" arrival="351.00" arrivalLane="B3top1_0" arrivalPos="286.40" arrivalSpeed="12.33" duration="119.00" routeLength="897.72" waitingTime="33.00" waitingCount="2" stopTime="0.00" timeLoss="49.77" rerouteNo="0" devices="tripinfo_52" vType="DEFAULT_VEHTYPE" speedFactor="0.95" vaporized=""/>
    <tripinfo id="56" depart="272.00" departLane="top3D3_0" departPos="5.10" departSpeed="0.00" departDelay="0.00" arrival="351.00" arrivalLane="C3top2_0" arrivalPos="286.40" arrivalSpeed="12.49" duration="79.00" routeLength="858.56" waitingTime="1.00" waitingCount="1" stopTime="0.00" timeLoss="13.22" rerouteNo="0" devices="tripinfo_56" vType="DEFAULT_VEHTYPE" speedFactor="0.96" vaporized=""/>
    <tripinfo id="32" depart="134.00" departLane="top3D3_0" departPos="5.10" departSpeed="0.00" departDelay="0.00" arrival="360.00" arrivalLane="D3top3_0" arrivalPos="286.40" arrivalSpeed="12.78" duration="226.00" routeLength="1748.75" waitingTime="60.00" waitingCount="4" stopTime="0.00" timeLoss="89.51" rerouteNo="0" devices="tripinfo_32" vType="DEFAULT_VEHTYPE" speedFactor="0.94" vaporized=""/>
    <tripinfo id="46" depart="211.00" departLane="left2A2_0" departPos="5.10" departSpeed="0.00" departDelay="0.00" arrival="361.00" arrivalLane="C3top2_0" arrivalPos="286.40" arrivalSpeed="11.83" duration="150.00" routeLength="1495.35" waitingTime="11.00" waitingCount="1" stopTime="0.00" timeLoss="29.72" rerouteNo="0" devices="tripinfo_46" vType="DEFAULT_VEHTYPE" speedFactor="0.90" vaporized=""/>
    <tripinfo id="58" depart="281.00" departLane="top2C3_0" departPos="5.10" departSpeed="0.00" departDelay="0.00" arrival="361.00" arrivalLane="B3top1_0" arrivalPos="286.40" arrivalSpeed="14.38" duration="80.00" routeLength="858.56" waitingTime="2.00" waitingCount="2" stopTime="0.00" timeLoss="18.87" rerouteNo="0" devices="tripinfo_58" vType="DEFAULT_VEHTYPE" speedFactor="1.04" vaporized=""/>
    <tripinfo id="53" depart="247.00" departLane="bottom1B0_0" departPos="5.10" departSpeed="0.00" departDelay="0.00" arrival="368.00" arrivalLane="D0right0_0" arrivalPos="286.40" arrivalSpeed="14.19" duration="121.00" routeLength="1179.77" waitingTime="18.00" waitingCount="2" stopTime="0.00" timeLoss="39.04" rerouteNo="0" devices="tripinfo_53" vType="DEFAULT_VEHTYPE" speedFactor="1.04" vaporized=""/>
    <tripinfo id="64" depart="301.00" departLane="top0A3_0" departPos="5.10" departSpeed="0.00" departDelay="0.00" arrival="376.00" arrivalLane="B3top1_0" arrivalPos="286.40" arrivalSpeed="15.25" duration="75.00" routeLength="894.86" waitingTime="6.00" waitingCount="1" stopTime="0.00" timeLoss="18.95" rerouteNo="0" devices="tripinfo_64" vType="DEFAULT_VEHTYPE" speedFactor="1.17" vaporized=""/>
    <tripinfo id="48" depart="215.00" departLane="right1D1_0" departPos="5.10" departSpeed="0.00" departDelay="0.00" arrival="377.00" arrivalLane="A1left1_0" arrivalPos="286.40" arrivalSpeed="14.89" duration="162.00" routeLength="1495.58" waitingTime="38.00" waitingCount="3" stopTime="0.00" timeLoss="64.46" rerouteNo="0" devices="tripinfo_48" vType="DEFAULT_VEHTYPE" speedFactor="1.11" vaporized=""/>
    <tripinfo id="41" depart="186.00" departLane="bottom0A0_0" departPos="5.10" departSpeed="0.00" departDelay="0.00" arrival="380.00" arrivalLane="C3top2_0" arrivalPos="286.40" arrivalSpeed="13.66" duration="194.00" routeLength="2082.76" waitingTime="3.00" waitingCount="2" stopTime="0.00" timeLoss="39.93" rerouteNo="0" devices="tripinfo_41" vType="DEFAULT_VEHTYPE" speedFactor="0.99" vaporized=""/>
    <tripinfo id="65" depart="307.00" departLane="right2D2_0" departPos="5.10" departSpeed="0.00" departDelay="0.00" arrival="393.00" arrivalLane="D3top3_0" arrivalPos="286.40" arrivalSpeed="11.78" duration="86.00" routeLength="879.60" waitingTime="1.00" waitingCount="1" stopTime="0.00" timeLoss="13.22" rerouteNo="0" devices="tripinfo_65" vType="DEFAULT_VEHTYPE" speedFactor="0.89" vaporized=""/>
    <tripinfo id="54" depart="247.00" departLane="right2D2_0" departPos="5.10" departSpeed="0.00" departDelay="0.00" arrival="394.00" arrivalLane="C3top2_0" arrivalPos="286.40" arrivalSpeed="10.94" duration="147.00" routeLength="1179.77" waitingTime="22.00" waitingCount="2" stopTime="0.00" timeLoss="39.99" rerouteNo="0" devices="tripinfo_54" vType="DEFAULT_VEHTYPE" speedFactor="0.80" vaporized=""/>
    <tripinfo id="63" depart="300.00" departLane="top2C3_0" departPos="5.10" departSpeed="0.00" departDelay="0.00" arrival="419.00" arrivalLane="D2right2_0" arrivalPos="286.40" arrivalSpeed="13.66" duration="119.00" routeLength="1195.18" waitingTime="14.00" waitingCount="2" stopTime="0.00" timeLoss="31.75" rerouteNo="0" devices="tripinfo_63" vType="DEFAULT_VEHTYPE" speedFactor="0.99" vaporized=""/>
    <tripinfo id="39" depart="163.00" departLane="top2C3_0" departPos="5.10" departSpeed="0.00" departDelay="0.00" arrival="420.00" arrivalLane="D0right0_0" arrivalPos="286.40" arrivalSpeed="12.86" duration="257.00" routeLength="1795.52" waitingTime="88.00" waitingCount="5" stopTime="0.00" timeLoss="123.31" rerouteNo="0" devices="tripinfo_39" vType="DEFAULT_VEHTYPE" speedFactor="0.97" vaporized=""/>
    <tripinfo id="36" depart="142.00" departLane="bottom0A0_0" departPos="5.10" departSpeed="0.00" departDelay="0.00" arrival="423.00" arrivalLane="D3right3_0" arrivalPos="286.40" arrivalSpeed="13.30" duration="281.00" routeLength="2380.45" waitingTime="61.00" waitingCount="6" stopTime="0.00" timeLoss="106.66" rerouteNo="0" devices="tripinfo_36" vType="DEFAULT_VEHTYPE" speedFactor="0.99" vaporized=""/>
    <tripinfo id="69" depart="323.00" departLane="right0D0_0" departPos="5.10" departSpeed="0.00" departDelay="0.00" arrival="440.00" arrivalLane="C0bottom2_0" arrivalPos="286.40" arrivalSpeed="12.01" duration="117.00" routeLength="897.72" waitingTime="33.00" waitingCount="2" stopTime="0.00" timeLoss="48.61" rerouteNo="0" devices="tripinfo_69" vType="DEFAULT_VEHTYPE" speedFactor="0.95" vaporized=""/>
    <tripinfo id="49" depart="219.00" departLane="bottom1B0_0" departPos="5.10" departSpeed="0.00" departDelay="0.00" arrival="441.00" arrivalLane="D3top3_0" arrivalPos="286.40" arrivalSpeed="12.74" duration="222.00" routeLength="2082.76" waitingTime="25.00" waitingCount="4" stopTime="0.00" timeLoss="61.21" rerouteNo="0" devices="tripinfo_49" vType="DEFAULT_VEHTYPE" speedFactor="0.94" vaporized=""/>
    <tripinfo id="60" depart="288.00" departLane="right3D3_0" departPos="5.10" departSpeed="0.00" departDelay="0.00" arrival="449.00" arrivalLane="D1right1_0" arrivalPos="286.40" arrivalSpeed="13.27" duration="161.00" routeLength="1197.66" waitingTime="52.00" waitingCount="3" stopTime="0.00" timeLoss="73.56" rerouteNo="0" devices="tripinfo_60" vType="DEFAULT_VEHTYPE" speedFactor="1.00" vaporized=""/>
    <tripinfo id="84" depart="371.00" departLane="right1D1_0" departPos="5.10" departSpeed="0.00" departDelay="0.00" arrival="450.00" arrivalLane="D0right0_0" arrivalPos="286.40" arrivalSpeed="14.34" duration="79.00" routeLength="894.86" waitingTime="5.00" waitingCount="1" stopTime="0.00" timeLoss="17.40" rerouteNo="0" devices="tripinfo_84" vType="DEFAULT_VEHTYPE" speedFactor="1.08" vaporized=""/>
    <tripinfo id="81" depart="366.00" departLane="bottom2C0_0" departPos="5.10" departSpeed="0.00" departDelay="0.00" arrival="461.00" arrivalLane="D0right0_0" arrivalPos="286.40" arrivalSpeed="11.82" duration="95.00" routeLength="879.60" waitingTime="10.00" waitingCount="2" stopTime="0.00" timeLoss="25.33" rerouteNo="0" devices="tripinfo_81" vType="DEFAULT_VEHTYPE" speedFactor="0.93" vaporized=""/>
    <tripinfo id="73" depart="341.00" departLane="bottom3D0_0" departPos="5.10" departSpeed="0.00" departDelay="0.00" arrival="467.00" arrivalLane="D2right2_0" arrivalPos="286.40" arrivalSpeed="11.72" duration="126.00" routeLength="1177.07" waitingTime="13.00" waitingCount="1" stopTime="0.00" timeLoss="31.76" rerouteNo="0" devices="tripinfo_73" vType="DEFAULT_VEHTYPE" speedFactor="0.91" vaporized=""/>
    <tripinfo id="76" depart="347.00" departLane="top3D3_0" departPos="5.10" departSpeed="0.00" departDelay="0.00" arrival="467.00" arrivalLane="D2right2_1" arrivalPos="286.40" arrivalSpeed="14.97" duration="120.00" routeLength="897.72" waitingTime="43.00" waitingCount="2" stopTime="0.00" timeLoss="61.62" rerouteNo="0" devices="tripinfo_76" vType="DEFAULT_VEHTYPE" speedFactor="1.12" vaporized=""/>
    <tripinfo id="79" depart="360.00" departLane="top1B3_0" departPos="5.10" departSpeed="0.00" departDelay="0.00" arrival="469.00" arrivalLane="A2left2_0" arrivalPos="286.40" arrivalSpeed="12.66" duration="109.00" routeLength="1179.77" waitingTime="4.00" waitingCount="2" stopTime="0.00" timeLoss="22.08" rerouteNo="0" devices="tripinfo_79" vType="DEFAULT_VEHTYPE" speedFactor="0.99" vaporized=""/>
    <tripinfo id="44" depart="206.00" departLane="bottom0A0_0" departPos="5.10" departSpeed="0.00" departDelay="0.00" arrival="473.00" arrivalLane="C3top2_0" arrivalPos="286.40" arrivalSpeed="11.93" duration="267.00" routeLength="2082.76" waitingTime="59.00" waitingCount="5" stopTime="0.00" timeLoss="97.78" rerouteNo="0" devices="tripinfo_44" vType="DEFAULT_VEHTYPE" speedFactor="0.90" vaporized=""/>
    <tripinfo id="59" depart="285.00" departLane="right3D3_0" departPos="5.10" departSpeed="0.00" departDelay="0.00" arrival="474.00" arrivalLane="A2left2_0" arrivalPos="286.40" arrivalSpeed="13.07" duration="189.00" routeLength="1782.59" waitingTime="31.00" waitingCount="2" stopTime="0.00" timeLoss="53.79" rerouteNo="0" devices="tripinfo_59" vType="DEFAULT_VEHTYPE" speedFactor="0.96" vaporized=""/>
    <tripinfo id="57" depart="276.00" departLane="right2D2_0" departPos="5.10" departSpeed="0.00" departDelay="0.00" arrival="476.00" arrivalLane="A3left3_0" arrivalPos="286.40" arrivalSpeed="11.84" duration="200.00" routeLength="1782.72" waitingTime="29.00" waitingCount="3" stopTime="0.00" timeLoss="56.60" rerouteNo="0" devices="tripinfo_57" vType="DEFAULT_VEHTYPE" speedFactor="0.90" vaporized=""/>
    <tripinfo id="50" depart="229.00" departLane="bottom1B0_0" departPos="5.10" departSpeed="0.00" departDelay="0.00" arrival="477.00" arrivalLane="D3right3_0" arrivalPos="286.40" arrivalSpeed="14.86" duration="248.00" routeLength="2080.28" waitingTime="60.00" waitingCount="6" stopTime="0.00" timeLoss="111.38" rerouteNo="0" devices="tripinfo_50" vType="DEFAULT_VEHTYPE" speedFactor="1.11" vaporized=""/>
    <tripinfo id="62" depart="298.00" departLane="bottom3D0_0" departPos="5.10" departSpeed="0.00" departDelay="0.00" arrival="479.00" arrivalLane="C3top2_0" arrivalPos="286.40" arrivalSpeed="14.51" duration="181.00" routeLength="1782.59" waitingTime="28.00" waitingCount="4" stopTime="0.00" timeLoss="58.79" rerouteNo="0" devices="tripinfo_62" vType="DEFAULT_VEHTYPE" speedFactor="1.06" vaporized=""/>