<?xml version="1.0" encoding="UTF-8"?>

<!-- generated on 12/19/21 10:55:22 by Eclipse SUMO sumo Version 1.7.0
<configuration xmlns:xsi="http://www.w3.org/2001/XMLSchema-instance" xsi:noNamespaceSchemaLocation="http://sumo.dlr.de/xsd/sumoConfiguration.xsd">

    <input>
        <net-file value="C:\Users\longs\Desktop\RESCO-main\environments\grid4x4\grid4x4.net.xml"/>
        <route-files value="C:\Users\longs\Desktop\RESCO-main\environments\grid4x4\grid4x4_9.rou.xml"/>
    </input>

    <output>
        <tripinfo-output value="C:\Users\longs\Desktop\RESCO-main\logs\IDQN-tr1-grid4x4-0-drqlong-delaydiff_pressure01\tripinfo_9.xml"/>
        <tripinfo-output.write-unfinished value="true"/>
    </output>

    <processing>
        <time-to-teleport value="-1"/>
    </processing>

    <report>
        <no-warnings value="true"/>
        <no-step-log value="true"/>
    </report>

    <traci_server>
        <remote-port value="59129"/>
    </traci_server>

    <random_number>
        <random value="true"/>
    </random_number>

</configuration>
-->

<tripinfos xmlns:xsi="http://www.w3.org/2001/XMLSchema-instance" xsi:noNamespaceSchemaLocation="http://sumo.dlr.de/xsd/tripinfo_file.xsd">
    <tripinfo id="0" depart="4.00" departLane="bottom3D0_0" departPos="5.10" departSpeed="0.00" departDelay="0.00" arrival="101.00" arrivalLane="D1right1_0" arrivalPos="286.40" arrivalSpeed="16.79" duration="97.00" routeLength="876.90" waitingTime="25.00" waitingCount="2" stopTime="0.00" timeLoss="46.22" rerouteNo="0" devices="tripinfo_0" vType="DEFAULT_VEHTYPE" speedFactor="1.26" vaporized=""/>
    <tripinfo id="12" depart="67.00" departLane="top0A3_0" departPos="5.10" departSpeed="0.00" departDelay="0.00" arrival="122.00" arrivalLane="A3left3_0" arrivalPos="286.40" arrivalSpeed="13.16" duration="55.00" routeLength="576.73" waitingTime="1.00" waitingCount="1" stopTime="0.00" timeLoss="12.72" rerouteNo="0" devices="tripinfo_12" vType="DEFAULT_VEHTYPE" speedFactor="1.01" vaporized=""/>
    <tripinfo id="8" depart="41.00" departLane="top2C3_0" departPos="5.10" departSpeed="0.00" departDelay="0.00" arrival="155.00" arrivalLane="D3top3_0" arrivalPos="286.40" arrivalSpeed="10.94" duration="114.00" routeLength="894.86" waitingTime="17.00" waitingCount="2" stopTime="0.00" timeLoss="34.50" rerouteNo="0" devices="tripinfo_8" vType="DEFAULT_VEHTYPE" speedFactor="0.83" vaporized=""/>
    <tripinfo id="4" depart="19.00" departLane="left3A3_0" departPos="5.10" departSpeed="0.00" departDelay="0.00" arrival="162.00" arrivalLane="A0left0_0" arrivalPos="286.40" arrivalSpeed="15.85" duration="143.00" routeLength="1461.60" waitingTime="23.00" waitingCount="3" stopTime="0.00" timeLoss="49.95" rerouteNo="0" devices="tripinfo_4" vType="DEFAULT_VEHTYPE" speedFactor="1.15" vaporized=""/>
    <tripinfo id="2" depart="15.00" departLane="bottom1B0_0" departPos="5.10" departSpeed="0.00" departDelay="0.00" arrival="181.00" arrivalLane="A1left1_0" arrivalPos="286.40" arrivalSpeed="11.31" duration="166.00" routeLength="1195.18" waitingTime="45.00" waitingCount="2" stopTime="0.00" timeLoss="67.31" rerouteNo="0" devices="tripinfo_2" vType="DEFAULT_VEHTYPE" speedFactor="0.88" vaporized=""/>
    <tripinfo id="6" depart="22.00" departLane="bottom1B0_0" departPos="5.10" departSpeed="0.00" departDelay="0.00" arrival="201.00" arrivalLane="A0left0_0" arrivalPos="286.40" arrivalSpeed="12.02" duration="179.00" routeLength="895.01" waitingTime="91.00" waitingCount="2" stopTime="0.00" timeLoss="107.55" rerouteNo="0" devices="tripinfo_6" vType="DEFAULT_VEHTYPE" speedFactor="0.92" vaporized=""/>
    <tripinfo id="5" depart="21.00" departLane="top3D3_0" departPos="5.10" departSpeed="0.00" departDelay="0.00" arrival="218.00" arrivalLane="A1left1_0" arrivalPos="286.40" arrivalSpeed="14.15" duration="197.00" routeLength="2080.28" waitingTime="18.00" waitingCount="5" stopTime="0.00" timeLoss="58.91" rerouteNo="0" devices="tripinfo_5" vType="DEFAULT_VEHTYPE" speedFactor="1.10" vaporized=""/>
    <tripinfo id="1" depart="11.00" departLane="left1A1_0" departPos="5.10" departSpeed="0.00" departDelay="0.00" arrival="248.00" arrivalLane="A1left1_0" arrivalPos="286.40" arrivalSpeed="14.67" duration="237.00" routeLength="1748.75" waitingTime="79.00" waitingCount="4" stopTime="0.00" timeLoss="115.50" rerouteNo="0" devices="tripinfo_1" vType="DEFAULT_VEHTYPE" speedFactor="1.06" vaporized=""/>
    <tripinfo id="42" depart="206.00" departLane="bottom3D0_0" departPos="5.10" departSpeed="0.00" departDelay="0.00" arrival="263.00" arrivalLane="D0right0_0" arrivalPos="286.40" arrivalSpeed="12.96" duration="57.00" routeLength="576.73" waitingTime="1.00" waitingCount="1" stopTime="0.00" timeLoss="12.62" rerouteNo="0" devices="tripinfo_42" vType="DEFAULT_VEHTYPE" speedFactor="0.97" vaporized=""/>
    <tripinfo id="48" depart="232.00" departLane="top3D3_0" departPos="5.10" departSpeed="0.00" departDelay="0.00" arrival="282.00" arrivalLane="D3right3_0" arrivalPos="286.40" arrivalSpeed="13.73" duration="50.00" routeLength="597.55" waitingTime="0.00" waitingCount="0" stopTime="0.00" timeLoss="5.56" rerouteNo="0" devices="tripinfo_48" vType="DEFAULT_VEHTYPE" speedFactor="1.00" vaporized=""/>
    <tripinfo id="13" depart="69.00" departLane="top2C3_0" departPos="5.10" departSpeed="0.00" departDelay="0.00" arrival="284.00" arrivalLane="D2right2_0" arrivalPos="286.40" arrivalSpeed="11.20" duration="215.00" routeLength="1195.18" waitingTime="88.00" waitingCount="3" stopTime="0.00" timeLoss="109.49" rerouteNo="0" devices="tripinfo_13" vType="DEFAULT_VEHTYPE" speedFactor="0.83" vaporized=""/>
    <tripinfo id="22" depart="118.00" departLane="top3D3_0" departPos="5.10" departSpeed="0.00" departDelay="0.00" arrival="287.00" arrivalLane="B0bottom1_0" arrivalPos="286.40" arrivalSpeed="14.51" duration="169.00" routeLength="2082.76" waitingTime="11.00" waitingCount="1" stopTime="0.00" timeLoss="34.80" rerouteNo="0" devices="tripinfo_22" vType="DEFAULT_VEHTYPE" speedFactor="1.13" vaporized=""/>
    <tripinfo id="19" depart="101.00" departLane="left0A0_0" departPos="5.10" departSpeed="0.00" departDelay="0.00" arrival="288.00" arrivalLane="D0bottom3_0" arrivalPos="286.40" arrivalSpeed="14.99" duration="187.00" routeLength="1477.24" waitingTime="61.00" waitingCount="3" stopTime="0.00" timeLoss="90.65" rerouteNo="0" devices="tripinfo_19" vType="DEFAULT_VEHTYPE" speedFactor="1.11" vaporized=""/>
    <tripinfo id="32" depart="177.00" departLane="left0A0_0" departPos="5.10" departSpeed="0.00" departDelay="0.00" arrival="288.00" arrivalLane="A2left2_0" arrivalPos="286.40" arrivalSpeed="14.51" duration="111.00" routeLength="1197.66" waitingTime="11.00" waitingCount="2" stopTime="0.00" timeLoss="28.09" rerouteNo="0" devices="tripinfo_32" vType="DEFAULT_VEHTYPE" speedFactor="1.05" vaporized=""/>
    <tripinfo id="20" depart="104.00" departLane="bottom0A0_0" departPos="5.10" departSpeed="0.00" departDelay="0.00" arrival="298.00" arrivalLane="D0right0_0" arrivalPos="286.40" arrivalSpeed="14.03" duration="194.00" routeLength="1479.94" waitingTime="66.00" waitingCount="3" stopTime="0.00" timeLoss="91.38" rerouteNo="0" devices="tripinfo_20" vType="DEFAULT_VEHTYPE" speedFactor="1.05" vaporized=""/>
    <tripinfo id="3" depart="18.00" departLane="bottom2C0_0" departPos="5.10" departSpeed="0.00" departDelay="0.00" arrival="299.00" arrivalLane="D3top3_0" arrivalPos="286.40" arrivalSpeed="14.07" duration="281.00" routeLength="1782.72" waitingTime="125.00" waitingCount="2" stopTime="0.00" timeLoss="152.30" rerouteNo="0" devices="tripinfo_3" vType="DEFAULT_VEHTYPE" speedFactor="1.01" vaporized=""/>
    <tripinfo id="45" depart="213.00" departLane="left0A0_0" departPos="5.10" departSpeed="0.00" departDelay="0.00" arrival="300.00" arrivalLane="A1left1_0" arrivalPos="286.40" arrivalSpeed="12.76" duration="87.00" routeLength="894.86" waitingTime="4.00" waitingCount="2" stopTime="0.00" timeLoss="18.99" rerouteNo="0" devices="tripinfo_45" vType="DEFAULT_VEHTYPE" speedFactor="0.97" vaporized=""/>
    <tripinfo id="10" depart="60.00" departLane="top3D3_0" departPos="5.10" departSpeed="0.00" departDelay="0.00" arrival="304.00" arrivalLane="A2left2_0" arrivalPos="286.40" arrivalSpeed="11.49" duration="244.00" routeLength="1780.11" waitingTime="59.00" waitingCount="4" stopTime="0.00" timeLoss="88.17" rerouteNo="0" devices="tripinfo_10" vType="DEFAULT_VEHTYPE" speedFactor="0.83" vaporized=""/>
    <tripinfo id="17" depart="88.00" departLane="top3D3_0" departPos="5.10" departSpeed="0.00" departDelay="0.00" arrival="304.00" arrivalLane="A2left2_1" arrivalPos="286.40" arrivalSpeed="11.20" duration="216.00" routeLength="1780.11" waitingTime="36.00" waitingCount="3" stopTime="0.00" timeLoss="71.82" rerouteNo="0" devices="tripinfo_17" vType="DEFAULT_VEHTYPE" speedFactor="0.90" vaporized=""/>
    <tripinfo id="11" depart="66.00" departLane="bottom2C0_0" departPos="5.10" departSpeed="0.00" departDelay="0.00" arrival="306.00" arrivalLane="A2left2_1" arrivalPos="286.40" arrivalSpeed="15.66" duration="240.00" routeLength="1795.52" waitingTime="80.00" waitingCount="2" stopTime="0.00" timeLoss="124.30" rerouteNo="0" devices="tripinfo_11" vType="DEFAULT_VEHTYPE" speedFactor="1.13" vaporized=""/>
    <tripinfo id="16" depart="88.00" departLane="left0A0_0" departPos="5.10" departSpeed="0.00" departDelay="0.00" arrival="306.00" arrivalLane="D2right2_0" arrivalPos="286.40" arrivalSpeed="15.01" duration="218.00" routeLength="2080.05" waitingTime="55.00" waitingCount="3" stopTime="0.00" timeLoss="84.02" rerouteNo="0" devices="tripinfo_16" vType="DEFAULT_VEHTYPE" speedFactor="1.13" vaporized=""/>
    <tripinfo id="7" depart="40.00" departLane="right0D0_0" departPos="5.10" departSpeed="0.00" departDelay="0.00" arrival="310.00" arrivalLane="A0left0_0" arrivalPos="286.40" arrivalSpeed="11.17" duration="270.00" routeLength="1495.58" waitingTime="118.00" waitingCount="2" stopTime="0.00" timeLoss="138.68" rerouteNo="0" devices="tripinfo_7" vType="DEFAULT_VEHTYPE" speedFactor="0.82" vaporized=""/>
    <tripinfo id="43" depart="206.00" departLane="right0D0_0" departPos="5.10" departSpeed="0.00" departDelay="0.00" arrival="317.00" arrivalLane="D2right2_0" arrivalPos="286.40" arrivalSpeed="13.26" duration="111.00" routeLength="1161.43" waitingTime="4.00" waitingCount="2" stopTime="0.00" timeLoss="27.46" rerouteNo="0" devices="tripinfo_43" vType="DEFAULT_VEHTYPE" speedFactor="1.02" vaporized=""/>
    <tripinfo id="14" depart="72.00" departLane="top2C3_0" departPos="5.10" departSpeed="0.00" departDelay="3.00" arrival="321.00" arrivalLane="C0bottom2_0" arrivalPos="286.40" arrivalSpeed="10.28" duration="249.00" routeLength="1495.58" waitingTime="93.00" waitingCount="3" stopTime="0.00" timeLoss="119.10" rerouteNo="0" devices="tripinfo_14" vType="DEFAULT_VEHTYPE" speedFactor="0.83" vaporized=""/>
    <tripinfo id="49" depart="237.00" departLane="top1B3_0" departPos="5.10" departSpeed="0.00" departDelay="0.00" arrival="322.00" arrivalLane="A3top0_0" arrivalPos="286.40" arrivalSpeed="13.07" duration="85.00" routeLength="858.56" waitingTime="2.00" waitingCount="2" stopTime="0.00" timeLoss="20.22" rerouteNo="0" devices="tripinfo_49" vType="DEFAULT_VEHTYPE" speedFactor="0.98" vaporized=""/>
    <tripinfo id="59" depart="274.00" departLane="left0A0_0" departPos="5.10" departSpeed="0.00" departDelay="0.00" arrival="329.00" arrivalLane="A0bottom0_0" arrivalPos="286.40" arrivalSpeed="12.09" duration="55.00" routeLength="576.73" waitingTime="0.00" waitingCount="0" stopTime="0.00" timeLoss="10.26" rerouteNo="0" devices="tripinfo_59" vType="DEFAULT_VEHTYPE" speedFactor="0.95" vaporized=""/>
    <tripinfo id="34" depart="182.00" departLane="bottom0A0_0" departPos="5.10" departSpeed="0.00" departDelay="0.00" arrival="331.00" arrivalLane="D0right0_0" arrivalPos="286.40" arrivalSpeed="12.28" duration="149.00" routeLength="1479.94" waitingTime="2.00" waitingCount="2" stopTime="0.00" timeLoss="31.00" rerouteNo="0" devices="tripinfo_34" vType="DEFAULT_VEHTYPE" speedFactor="0.91" vaporized=""/>
    <tripinfo id="25" depart="139.00" departLane="left1A1_0" departPos="5.10" departSpeed="0.00" departDelay="0.00" arrival="336.00" arrivalLane="A1left1_0" arrivalPos="286.40" arrivalSpeed="10.29" duration="197.00" routeLength="1748.75" waitingTime="10.00" waitingCount="2" stopTime="0.00" timeLoss="34.81" rerouteNo="0" devices="tripinfo_25" vType="DEFAULT_VEHTYPE" speedFactor="0.79" vaporized=""/>
    <tripinfo id="15" depart="82.00" departLane="top1B3_0" departPos="5.10" departSpeed="0.00" departDelay="0.00" arrival="337.00" arrivalLane="D3right3_0" arrivalPos="286.40" arrivalSpeed="14.54" duration="255.00" routeLength="1195.18" waitingTime="151.00" waitingCount="3" stopTime="0.00" timeLoss="178.17" rerouteNo="0" devices="tripinfo_15" vType="DEFAULT_VEHTYPE" speedFactor="1.14" vaporized=""/>
    <tripinfo id="38" depart="194.00" departLane="bottom2C0_0" departPos="5.10" departSpeed="0.00" departDelay="0.00" arrival="340.00" arrivalLane="A1left1_0" arrivalPos="286.40" arrivalSpeed="12.63" duration="146.00" routeLength="1495.35" waitingTime="14.00" waitingCount="2" stopTime="0.00" timeLoss="32.25" rerouteNo="0" devices="tripinfo_38" vType="DEFAULT_VEHTYPE" speedFactor="0.95" vaporized=""/>
    <tripinfo id="58" depart="262.00" departLane="right0D0_0" departPos="5.10" departSpeed="0.00" departDelay="0.00" arrival="342.00" arrivalLane="C0bottom2_0" arrivalPos="286.40" arrivalSpeed="11.91" duration="80.00" routeLength="897.72" waitingTime="0.00" waitingCount="0" stopTime="0.00" timeLoss="6.64" rerouteNo="0" devices="tripinfo_58" vType="DEFAULT_VEHTYPE" speedFactor="0.89" vaporized=""/>
    <tripinfo id="23" depart="127.00" departLane="top1B3_0" departPos="5.10" departSpeed="0.00" departDelay="0.00" arrival="343.00" arrivalLane="D3top3_0" arrivalPos="286.40" arrivalSpeed="11.56" duration="216.00" routeLength="1197.66" waitingTime="94.00" waitingCount="3" stopTime="0.00" timeLoss="116.97" rerouteNo="0" devices="tripinfo_23" vType="DEFAULT_VEHTYPE" speedFactor="0.89" vaporized=""/>
    <tripinfo id="51" depart="242.00" departLane="top2C3_0" departPos="5.10" departSpeed="0.00" departDelay="0.00" arrival="346.00" arrivalLane="A3top0_0" arrivalPos="286.40" arrivalSpeed="12.97" duration="104.00" routeLength="1161.43" waitingTime="1.00" waitingCount="1" stopTime="0.00" timeLoss="16.78" rerouteNo="0" devices="tripinfo_51" vType="DEFAULT_VEHTYPE" speedFactor="0.97" vaporized=""/>
    <tripinfo id="30" depart="175.00" departLane="top2C3_0" departPos="5.10" departSpeed="0.00" departDelay="0.00" arrival="348.00" arrivalLane="A0bottom0_0" arrivalPos="286.40" arrivalSpeed="15.55" duration="173.00" routeLength="2082.76" waitingTime="23.00" waitingCount="1" stopTime="0.00" timeLoss="42.14" rerouteNo="0" devices="tripinfo_30" vType="DEFAULT_VEHTYPE" speedFactor="1.16" vaporized=""/>
    <tripinfo id="21" depart="110.00" departLane="bottom0A0_0" departPos="5.10" departSpeed="0.00" departDelay="0.00" arrival="358.00" arrivalLane="D3right3_0" arrivalPos="286.40" arrivalSpeed="11.79" duration="248.00" routeLength="2380.45" waitingTime="36.00" waitingCount="3" stopTime="0.00" timeLoss="63.40" rerouteNo="0" devices="tripinfo_21" vType="DEFAULT_VEHTYPE" speedFactor="0.94" vaporized=""/>
    <tripinfo id="40" depart="196.00" departLane="right2D2_0" departPos="5.10" departSpeed="0.00" departDelay="0.00" arrival="363.00" arrivalLane="C3top2_0" arrivalPos="286.40" arrivalSpeed="11.05" duration="167.00" routeLength="1179.77" waitingTime="44.00" waitingCount="3" stopTime="0.00" timeLoss="66.60" rerouteNo="0" devices="tripinfo_40" vType="DEFAULT_VEHTYPE" speedFactor="0.86" vaporized=""/>
    <tripinfo id="50" depart="240.00" departLane="bottom0A0_0" departPos="5.10" departSpeed="0.00" departDelay="0.00" arrival="365.00" arrivalLane="D1right1_0" arrivalPos="286.40" arrivalSpeed="16.69" duration="125.00" routeLength="1780.11" waitingTime="4.00" waitingCount="1" stopTime="0.00" timeLoss="20.61" rerouteNo="0" devices="tripinfo_50" vType="DEFAULT_VEHTYPE" speedFactor="1.23" vaporized=""/>
    <tripinfo id="31" depart="178.00" departLane="top2C3_0" departPos="5.10" departSpeed="0.00" departDelay="1.00" arrival="374.00" arrivalLane="D0right0_0" arrivalPos="286.40" arrivalSpeed="12.08" duration="196.00" routeLength="1795.52" waitingTime="35.00" waitingCount="2" stopTime="0.00" timeLoss="57.16" rerouteNo="0" devices="tripinfo_31" vType="DEFAULT_VEHTYPE" speedFactor="0.94" vaporized=""/>
    <tripinfo id="56" depart="251.00" departLane="right3D3_0" departPos="5.10" departSpeed="0.00" departDelay="0.00" arrival="401.00" arrivalLane="A3left3_1" arrivalPos="286.40" arrivalSpeed="13.49" duration="150.00" routeLength="1495.58" waitingTime="17.00" waitingCount="2" stopTime="0.00" timeLoss="44.39" rerouteNo="0" devices="tripinfo_56" vType="DEFAULT_VEHTYPE" speedFactor="1.02" vaporized=""/>
    <tripinfo id="37" depart="193.00" departLane="right3D3_0" departPos="5.10" departSpeed="0.00" departDelay="0.00" arrival="402.00" arrivalLane="A3left3_0" arrivalPos="286.40" arrivalSpeed="11.33" duration="209.00" routeLength="1495.58" waitingTime="64.00" waitingCount="2" stopTime="0.00" timeLoss="87.23" rerouteNo="0" devices="tripinfo_37" vType="DEFAULT_VEHTYPE" speedFactor="0.89" vaporized=""/>
    <tripinfo id="62" depart="283.00" departLane="right1D1_0" departPos="5.10" departSpeed="0.00" departDelay="0.00" arrival="405.00" arrivalLane="D3right3_0" arrivalPos="286.40" arrivalSpeed="12.04" duration="122.00" routeLength="1161.43" waitingTime="17.00" waitingCount="1" stopTime="0.00" timeLoss="32.19" rerouteNo="0" devices="tripinfo_62" vType="DEFAULT_VEHTYPE" speedFactor="0.95" vaporized=""/>
    <tripinfo id="53" depart="248.00" departLane="left0A0_0" departPos="5.10" departSpeed="0.00" departDelay="0.00" arrival="410.00" arrivalLane="D0bottom3_0" arrivalPos="286.40" arrivalSpeed="14.19" duration="162.00" routeLength="1477.24" waitingTime="38.00" waitingCount="2" stopTime="0.00" timeLoss="60.80" rerouteNo="0" devices="tripinfo_53" vType="DEFAULT_VEHTYPE" speedFactor="1.06" vaporized=""/>
    <tripinfo id="55" depart="250.00" departLane="bottom3D0_0" departPos="5.10" departSpeed="0.00" departDelay="0.00" arrival="411.00" arrivalLane="D3right3_0" arrivalPos="286.40" arrivalSpeed="12.79" duration="161.00" routeLength="1477.24" waitingTime="27.00" waitingCount="3" stopTime="0.00" timeLoss="50.02" rerouteNo="0" devices="tripinfo_55" vType="DEFAULT_VEHTYPE" speedFactor="0.97" vaporized=""/>
    <tripinfo id="57" depart="259.00" departLane="left2A2_0" departPos="5.10" departSpeed="0.00" departDelay="0.00" arrival="411.00" arrivalLane="B3top1_0" arrivalPos="286.40" arrivalSpeed="13.62" duration="152.00" routeLength="1195.18" waitingTime="52.00" waitingCount="2" stopTime="0.00" timeLoss="70.67" rerouteNo="0" devices="tripinfo_57" vType="DEFAULT_VEHTYPE" speedFactor="1.07" vaporized=""/>
    <tripinfo id="28" depart="169.00" departLane="bottom1B0_0" departPos="5.10" departSpeed="0.00" departDelay="0.00" arrival="418.00" arrivalLane="D3right3_0" arrivalPos="286.40" arrivalSpeed="13.76" duration="249.00" routeLength="2080.28" waitingTime="65.00" waitingCount="6" stopTime="0.00" timeLoss="105.45" rerouteNo="0" devices="tripinfo_28" vType="DEFAULT_VEHTYPE" speedFactor="1.05" vaporized=""/>
    <tripinfo id="18" depart="100.00" departLane="right1D1_0" departPos="5.10" departSpeed="0.00" departDelay="0.00" arrival="420.00" arrivalLane="A3top0_0" arrivalPos="286.40" arrivalSpeed="13.74" duration="320.00" routeLength="2080.28" waitingTime="132.00" waitingCount="4" stopTime="0.00" timeLoss="167.77" rerouteNo="0" devices="tripinfo_18" vType="DEFAULT_VEHTYPE" speedFactor="0.99" vaporized=""/>
    <tripinfo id="36" depart="192.00" departLane="bottom0A0_0" departPos="5.10" departSpeed="0.00" departDelay="0.00" arrival="429.00" arrivalLane="B3top1_0" arrivalPos="286.40" arrivalSpeed="12.34" duration="237.00" routeLength="1782.72" waitingTime="76.00" waitingCount="4" stopTime="0.00" timeLoss="104.72" rerouteNo="0" devices="tripinfo_36" vType="DEFAULT_VEHTYPE" speedFactor="0.98" vaporized=""/>
    <tripinfo id="64" depart="285.00" departLane="top0A3_0" departPos="5.10" departSpeed="0.00" departDelay="0.00" arrival="430.00" arrivalLane="A1left1_0" arrivalPos="286.40" arrivalSpeed="13.00" duration="145.00" routeLength="1177.07" waitingTime="32.00" waitingCount="3" stopTime="0.00" timeLoss="53.63" rerouteNo="0" devices="tripinfo_64" vType="DEFAULT_VEHTYPE" speedFactor="0.94" vaporized=""/>
    <tripinfo id="70" depart="304.00" departLane="right2D2_0" departPos="5.10" departSpeed="0.00" departDelay="0.00" arrival="436.00" arrivalLane="D0bottom3_0" arrivalPos="286.40" arrivalSpeed="16.01" duration="132.00" routeLength="1195.18" waitingTime="36.00" waitingCount="2" stopTime="0.00" timeLoss="57.33" rerouteNo="0" devices="tripinfo_70" vType="DEFAULT_VEHTYPE" speedFactor="1.18" vaporized=""/>
    <tripinfo id="44" depart="207.00" departLane="bottom0A0_0" departPos="5.10" departSpeed="0.00" departDelay="0.00" arrival="448.00" arrivalLane="D2right2_0" arrivalPos="286.40" arrivalSpeed="14.06" duration="241.00" routeLength="2080.28" waitingTime="71.00" waitingCount="3" stopTime="0.00" timeLoss="96.82" rerouteNo="0" devices="tripinfo_44" vType="DEFAULT_VEHTYPE" speedFactor="1.04" vaporized=""/>
    <tripinfo id="9" depart="53.00" departLane="top1B3_0" departPos="5.10" departSpeed="0.00" departDelay="0.00" arrival="451.00" arrivalLane="D0right0_0" arrivalPos="286.40" arrivalSpeed="11.43" duration="398.00" routeLength="2095.69" waitingTime="187.00" waitingCount="5" stopTime="0.00" timeLoss="230.78" rerouteNo="0" devices="tripinfo_9" vType="DEFAULT_VEHTYPE" speedFactor="0.91" vaporized=""/>
    <tripinfo id="86" depart="375.00" departLane="bottom2C0_0" departPos="5.10" departSpeed="0.00" departDelay="0.00" arrival="453.00" arrivalLane="D0right0_1" arrivalPos="286.40" arrivalSpeed="13.88" duration="78.00" routeLength="879.60" waitingTime="1.00" waitingCount="1" stopTime="0.00" timeLoss="14.11" rerouteNo="0" devices="tripinfo_86" vType="DEFAULT_VEHTYPE" speedFactor="1.01" vaporized=""/>
    <tripinfo id="63" depart="284.00" departLane="bottom0A0_0" departPos="5.10" departSpeed="0.00" departDelay="0.00" arrival="454.00" arrivalLane="D0right0_0" arrivalPos="286.40" arrivalSpeed="11.82" duration="170.00" routeLength="1479.94" waitingTime="27.00" waitingCount="2" stopTime="0.00" timeLoss="49.11" rerouteNo="0" devices="tripinfo_63" vType="DEFAULT_VEHTYPE" speedFactor="0.89" vaporized=""/>
    <tripinfo id="29" depart="175.00" departLane="top0A3_0" departPos="5.10" departSpeed="0.00" departDelay="0.00" arrival="469.00" arrivalLane="A0bottom0_0" arrivalPos="286.40" arrivalSpeed="13.56" duration="294.00" routeLength="1495.58" waitingTime="156.00" waitingCount="4" stopTime="0.00" timeLoss="185.10" rerouteNo="0" devices="tripinfo_29" vType="DEFAULT_VEHTYPE" speedFactor="0.99" vaporized=""/>
    <tripinfo id="46" depart="226.00" departLane="left3A3_0" departPos="5.10" departSpeed="0.00" departDelay="0.00" arrival="471.00" arrivalLane="D1right1_0" arrivalPos="286.40" arrivalSpeed="12.73" duration="245.00" routeLength="2082.76" waitingTime="62.00" waitingCount="2" stopTime="0.00" timeLoss="84.94" rerouteNo="0" devices="tripinfo_46" vType="DEFAULT_VEHTYPE" speedFactor="0.95" vaporized=""/>
    <tripinfo id="52" depart="244.00" departLane="right1D1_0" departPos="5.10" departSpeed="0.00" departDelay="0.00" arrival="473.00" arrivalLane="D0right0_0" arrivalPos="286.40" arrivalSpeed="11.83" duration="229.00" routeLength="894.86" waitingTime="137.00" waitingCount="2" stopTime="0.00" timeLoss="154.59" rerouteNo="0" devices="tripinfo_52" vType="DEFAULT_VEHTYPE" speedFactor="0.89" vaporized=""/>
    <tripinfo id="54" depart="249.00" departLane="right1D1_0" departPos="5.10" departSpeed="0.00" departDelay="0.00" arrival="473.00" arrivalLane="D0right0_1" arrivalPos="286.40" arrivalSpeed="12.74" duration="224.00" routeLength="894.86" waitingTime="135.00" waitingCount="2" stopTime="0.00" timeLoss="155.39" rerouteNo="0" devices="tripinfo_54" vType="DEFAULT_VEHTYPE" speedFactor="0.96" vaporized=""/>
    <tripinfo id="73" depart="316.00" departLane="left3A3_0" departPos="5.10" departSpeed="0.00" departDelay="0.00" arrival="476.00" arrivalLane="D3right3_0" arrivalPos="286.40" arrivalSpeed="16.04" duration="160.00" routeLength="1495.58" waitingTime="41.00" waitingCount="3" stopTime="0.00" timeLoss="69.38" rerouteNo="0" devices="tripinfo_73" vType="DEFAULT_VEHTYPE" speedFactor="1.20" vaporized=""/>
    <tripinfo id="27" depart="163.00" departLane="bottom3D0_0" departPos="5.10" departSpeed="0.00" departDelay="0.00" arrival="480.00" arrivalLane="A3left3_0" arrivalPos="286.40" arrivalSpeed="12.38" duration="317.00" routeLength="2395.86" waitingTime="95.00" waitingCount="7" stopTime="0.00" timeLoss="139.78" rerouteNo="0" devices="tripinfo_27" vType="DEFAULT_VEHTYPE" speedFactor="0.98" vaporized=""/>
    <tripinfo id="26" depart="161.00" departLane="left2A2_0" departPos="5.10" departSpeed="0.00" departDelay="0.00" arrival="484.00" arrivalLane="D3right3_0" arrivalPos="286.40" arrivalSpeed="11.61" duration="323.00" routeLength="1782.59" waitingTime="152.00" waitingCount="2" stopTime="0.00" timeLoss="178.02" rerouteNo="0" devices="tripinfo_26" vType="DEFAULT_VEHTYPE" speedFactor="0.90" vaporized=""/>
    <tripinfo id="33" depart="181.00" departLane="top2C3_0" departPos="5.10" departSpeed="0.00" departDelay="3.00" arrival="490.00" arrivalLane="A0bottom0_0" arrivalPos="286.40" arrivalSpeed="12.40" duration="309.00" routeLength="2082.76" waitingTime="107.00" waitingCount="6" stopTime="0.00" timeLoss="153.32" rerouteNo="0" devices="tripinfo_33" vType="DEFAULT_VEHTYPE" speedFactor="0.97" vaporized=""/>
    <tripinfo id="24" depart="134.00" departLane="right2D2_0" departPos="5.10" departSpeed="0.00" departDelay="0.00" arrival="491.00" arrivalLane="A0left0_0" arrivalPos="286.40" arrivalSpeed="11.41" duration="357.00" routeLength="2080.05" waitingTime="144.00" waitingCount="6" stopTime="0.00" timeLoss="190.76" rerouteNo="0" devices="tripinfo_24" vType="DEFAULT_VEHTYPE" speedFactor="0.91" vaporized=""/>
    <tripinfo id="60" depart="276.00" departLane="top0A3_0" departPos="5.10" departSpeed="0.00" departDelay="0.00" arrival="494.00" arrivalLane="A0left0_0" arrivalPos="286.40" arrivalSpeed="14.82" duration="218.00" routeLength="1477.24" waitingTime="87.00" waitingCount="4" stopTime="0.00" timeLoss="118.56" rerouteNo="0" devices="tripinfo_60" vType="DEFAULT_VEHTYPE" speedFactor="1.08" vaporized=""/>
    <tripinfo id="61" depart="279.00" departLane="top0A3_0" departPos="5.10" departSpeed="0.00" departDelay="0.00" arrival="511.00" arrivalLane="C3top2_0" arrivalPos="286.40" arrivalSpeed="12.97" duration="232.00" routeLength="1197.66" waitingTime="115.00" waitingCount="3" stopTime="0.00" timeLoss="138.24" rerouteNo="0" devices="tripinfo_61" vType="DEFAULT_VEHTYPE" speedFactor="0.94" vaporized=""/>
    <tripinfo id="69" depart="299.00" departLane="top1B3_0" departPos="5.10" departSpeed="0.00" departDelay="0.00" arrival="515.00" arrivalLane="D2right2_0" arrivalPos="286.40" arrivalSpeed="16.55" duration="216.00" routeLength="1495.35" waitingTime="95.00" waitingCount="4" stopTime="0.00" timeLoss="127.10" rerouteNo="0" devices="tripinfo_69" vType="DEFAULT_VEHTYPE" speedFactor="1.22" vaporized=""/>
    <tripinfo id="47" depart="231.00" departLane="left3A3_0" departPos="5.10" departSpeed="0.00" departDelay="0.00" arrival="516.00" arrivalLane="C0bottom2_0" arrivalPos="286.40" arrivalSpeed="15.52" duration="285.00" routeLength="2080.28" waitingTime="118.00" waitingCount="3" stopTime="0.00" timeLoss="154.96" rerouteNo="0" devices="tripinfo_47" vType="DEFAULT_VEHTYPE" speedFactor="1.16" vaporized=""/>
    <tripinfo id="82" depart="368.00" departLane="bottom1B0_0" departPos="5.10" departSpeed="0.00" departDelay="0.00" arrival="517.00" arrivalLane="A1left1_0" arrivalPos="286.40" arrivalSpeed="14.74" duration="149.00" routeLength="1195.18" waitingTime="53.00" waitingCount="2" stopTime="0.00" timeLoss="72.48" rerouteNo="0" devices="tripinfo_82" vType="DEFAULT_VEHTYPE" speedFactor="1.14" vaporized=""/>
    <tripinfo id="67" depart="294.00" departLane="right0D0_0" departPos="5.10" departSpeed="0.00" departDelay="0.00" arrival="518.00" arrivalLane="C3top2_0" arrivalPos="286.40" arrivalSpeed="13.34" duration="224.00" routeLength="1780.11" waitingTime="66.00" waitingCount="4" stopTime="0.00" timeLoss="100.08" rerouteNo="0" devices="tripinfo_67" vType="DEFAULT_VEHTYPE" speedFactor="1.04" vaporized=""/>
    <tripinfo id="78" depart="354.00" departLane="bottom3D0_0" departPos="5.10" departSpeed="0.00" departDelay="0.00" arrival="532.00" arrivalLane="D3right3_0" arrivalPos="286.40" arrivalSpeed="11.81" duration="178.00" routeLength="1477.24" waitingTime="32.00" waitingCount="3" stopTime="0.00" timeLoss="60.37" rerouteNo="0" devices="tripinfo_78" vType="DEFAULT_VEHTYPE" speedFactor="0.91" vaporized=""/>
    <tripinfo id="107" depart="467.00" departLane="top3D3_0" departPos="5.10" departSpeed="0.00" departDelay="0.00" arrival="532.00" arrivalLane="D3right3_1" arrivalPos="286.40" arrivalSpeed="12.82" duration="65.00" routeLength="597.55" waitingTime="7.00" waitingCount="1" stopTime="0.00" timeLoss="19.91" rerouteNo="0" devices="tripinfo_107" vType="DEFAULT_VEHTYPE" speedFactor="0.97" vaporized=""/>
    <tripinfo id="93" depart="412.00" departLane="right0D0_0" departPos="5.10" departSpeed="0.00" departDelay="0.00" arrival="534.00" arrivalLane="D3right3_0" arrivalPos="286.40" arrivalSpeed="15.39" duration="122.00" routeLength="1461.60" waitingTime="2.00" waitingCount="2" stopTime="0.00" timeLoss="27.32" rerouteNo="0" devices="tripinfo_93" vType="DEFAULT_VEHTYPE" speedFactor="1.13" vaporized=""/>