<?xml version="1.0" encoding="UTF-8"?>

<!-- generated on 12/19/21 10:53:03 by Eclipse SUMO sumo Version 1.7.0
<configuration xmlns:xsi="http://www.w3.org/2001/XMLSchema-instance" xsi:noNamespaceSchemaLocation="http://sumo.dlr.de/xsd/sumoConfiguration.xsd">

    <input>
        <net-file value="C:\Users\longs\Desktop\RESCO-main\environments\grid4x4\grid4x4.net.xml"/>
        <route-files value="C:\Users\longs\Desktop\RESCO-main\environments\grid4x4\grid4x4_7.rou.xml"/>
    </input>

    <output>
        <tripinfo-output value="C:\Users\longs\Desktop\RESCO-main\logs\IDQN-tr1-grid4x4-0-drqlong-delaydiff_pressure01\tripinfo_7.xml"/>
        <tripinfo-output.write-unfinished value="true"/>
    </output>

    <processing>
        <time-to-teleport value="-1"/>
    </processing>

    <report>
        <no-warnings value="true"/>
        <no-step-log value="true"/>
    </report>

    <traci_server>
        <remote-port value="59015"/>
    </traci_server>

    <random_number>
        <random value="true"/>
    </random_number>

</configuration>
-->

<tripinfos xmlns:xsi="http://www.w3.org/2001/XMLSchema-instance" xsi:noNamespaceSchemaLocation="http://sumo.dlr.de/xsd/tripinfo_file.xsd">
    <tripinfo id="2" depart="12.00" departLane="right1D1_0" departPos="5.10" departSpeed="0.00" departDelay="0.00" arrival="94.00" arrivalLane="D0right0_0" arrivalPos="286.40" arrivalSpeed="11.15" duration="82.00" routeLength="894.86" waitingTime="0.00" waitingCount="0" stopTime="0.00" timeLoss="7.35" rerouteNo="0" devices="tripinfo_2" vType="DEFAULT_VEHTYPE" speedFactor="0.88" vaporized=""/>
    <tripinfo id="5" depart="20.00" departLane="top1B3_0" departPos="5.10" departSpeed="0.00" departDelay="0.00" arrival="95.00" arrivalLane="C3top2_0" arrivalPos="286.40" arrivalSpeed="12.75" duration="75.00" routeLength="894.86" waitingTime="0.00" waitingCount="0" stopTime="0.00" timeLoss="7.43" rerouteNo="0" devices="tripinfo_5" vType="DEFAULT_VEHTYPE" speedFactor="0.98" vaporized=""/>
    <tripinfo id="0" depart="0.00" departLane="left0A0_0" departPos="5.10" departSpeed="0.00" departDelay="0.00" arrival="127.00" arrivalLane="B0bottom1_0" arrivalPos="286.40" arrivalSpeed="13.85" duration="127.00" routeLength="876.90" waitingTime="47.00" waitingCount="2" stopTime="0.00" timeLoss="63.12" rerouteNo="0" devices="tripinfo_0" vType="DEFAULT_VEHTYPE" speedFactor="1.01" vaporized=""/>
    <tripinfo id="12" depart="63.00" departLane="top1B3_0" departPos="5.10" departSpeed="0.00" departDelay="2.00" arrival="141.00" arrivalLane="A3top0_0" arrivalPos="286.40" arrivalSpeed="13.77" duration="78.00" routeLength="858.56" waitingTime="1.00" waitingCount="1" stopTime="0.00" timeLoss="14.70" rerouteNo="0" devices="tripinfo_12" vType="DEFAULT_VEHTYPE" speedFactor="1.00" vaporized=""/>
    <tripinfo id="15" depart="72.00" departLane="bottom3D0_0" departPos="5.10" departSpeed="0.00" departDelay="0.00" arrival="151.00" arrivalLane="D1right1_0" arrivalPos="286.40" arrivalSpeed="17.77" duration="79.00" routeLength="876.90" waitingTime="8.00" waitingCount="2" stopTime="0.00" timeLoss="28.82" rerouteNo="0" devices="tripinfo_15" vType="DEFAULT_VEHTYPE" speedFactor="1.29" vaporized=""/>
    <tripinfo id="13" depart="64.00" departLane="right2D2_0" departPos="5.10" departSpeed="0.00" departDelay="0.00" arrival="159.00" arrivalLane="D3right3_0" arrivalPos="286.40" arrivalSpeed="10.73" duration="95.00" routeLength="858.56" waitingTime="6.00" waitingCount="2" stopTime="0.00" timeLoss="21.85" rerouteNo="0" devices="tripinfo_13" vType="DEFAULT_VEHTYPE" speedFactor="0.86" vaporized=""/>
    <tripinfo id="4" depart="17.00" departLane="right0D0_0" departPos="5.10" departSpeed="0.00" departDelay="0.00" arrival="160.00" arrivalLane="D3top3_0" arrivalPos="286.40" arrivalSpeed="12.78" duration="143.00" routeLength="1479.94" waitingTime="12.00" waitingCount="2" stopTime="0.00" timeLoss="30.94" rerouteNo="0" devices="tripinfo_4" vType="DEFAULT_VEHTYPE" speedFactor="0.96" vaporized=""/>
    <tripinfo id="6" depart="30.00" departLane="left1A1_0" departPos="5.10" departSpeed="0.00" departDelay="0.00" arrival="171.00" arrivalLane="C0bottom2_0" arrivalPos="286.40" arrivalSpeed="12.27" duration="141.00" routeLength="1479.94" waitingTime="5.00" waitingCount="3" stopTime="0.00" timeLoss="26.95" rerouteNo="0" devices="tripinfo_6" vType="DEFAULT_VEHTYPE" speedFactor="0.95" vaporized=""/>
    <tripinfo id="8" depart="33.00" departLane="top1B3_0" departPos="5.10" departSpeed="0.00" departDelay="0.00" arrival="191.00" arrivalLane="A2left2_0" arrivalPos="286.40" arrivalSpeed="12.03" duration="158.00" routeLength="1179.77" waitingTime="46.00" waitingCount="2" stopTime="0.00" timeLoss="63.71" rerouteNo="0" devices="tripinfo_8" vType="DEFAULT_VEHTYPE" speedFactor="0.91" vaporized=""/>
    <tripinfo id="1" depart="4.00" departLane="bottom1B0_0" departPos="5.10" departSpeed="0.00" departDelay="0.00" arrival="194.00" arrivalLane="A2left2_0" arrivalPos="286.40" arrivalSpeed="12.21" duration="190.00" routeLength="1495.35" waitingTime="44.00" waitingCount="3" stopTime="0.00" timeLoss="68.46" rerouteNo="0" devices="tripinfo_1" vType="DEFAULT_VEHTYPE" speedFactor="0.90" vaporized=""/>
    <tripinfo id="17" depart="78.00" departLane="left2A2_0" departPos="5.10" departSpeed="0.00" departDelay="0.00" arrival="201.00" arrivalLane="A3left3_0" arrivalPos="286.40" arrivalSpeed="12.66" duration="123.00" routeLength="894.86" waitingTime="39.00" waitingCount="2" stopTime="0.00" timeLoss="53.79" rerouteNo="0" devices="tripinfo_17" vType="DEFAULT_VEHTYPE" speedFactor="0.96" vaporized=""/>
    <tripinfo id="10" depart="42.00" departLane="left3A3_0" departPos="5.10" departSpeed="0.00" departDelay="0.00" arrival="203.00" arrivalLane="A1left1_0" arrivalPos="286.40" arrivalSpeed="11.68" duration="161.00" routeLength="1161.43" waitingTime="40.00" waitingCount="3" stopTime="0.00" timeLoss="61.46" rerouteNo="0" devices="tripinfo_10" vType="DEFAULT_VEHTYPE" speedFactor="0.85" vaporized=""/>
    <tripinfo id="23" depart="136.00" departLane="right2D2_0" departPos="5.10" departSpeed="0.00" departDelay="0.00" arrival="223.00" arrivalLane="D3right3_0" arrivalPos="286.40" arrivalSpeed="11.31" duration="87.00" routeLength="858.56" waitingTime="2.00" waitingCount="2" stopTime="0.00" timeLoss="16.17" rerouteNo="0" devices="tripinfo_23" vType="DEFAULT_VEHTYPE" speedFactor="0.89" vaporized=""/>
    <tripinfo id="26" depart="157.00" departLane="left0A0_0" departPos="5.10" departSpeed="0.00" departDelay="0.00" arrival="231.00" arrivalLane="B0bottom1_0" arrivalPos="286.40" arrivalSpeed="15.56" duration="74.00" routeLength="876.90" waitingTime="2.00" waitingCount="2" stopTime="0.00" timeLoss="20.51" rerouteNo="0" devices="tripinfo_26" vType="DEFAULT_VEHTYPE" speedFactor="1.20" vaporized=""/>
    <tripinfo id="28" depart="158.00" departLane="bottom2C0_0" departPos="5.10" departSpeed="0.00" departDelay="0.00" arrival="238.00" arrivalLane="D0bottom3_0" arrivalPos="286.40" arrivalSpeed="13.29" duration="80.00" routeLength="858.56" waitingTime="2.00" waitingCount="2" stopTime="0.00" timeLoss="18.40" rerouteNo="0" devices="tripinfo_28" vType="DEFAULT_VEHTYPE" speedFactor="1.02" vaporized=""/>
    <tripinfo id="7" depart="32.00" departLane="bottom2C0_0" departPos="5.10" departSpeed="0.00" departDelay="0.00" arrival="241.00" arrivalLane="A0bottom0_0" arrivalPos="286.40" arrivalSpeed="12.36" duration="209.00" routeLength="1197.66" waitingTime="101.00" waitingCount="2" stopTime="0.00" timeLoss="118.31" rerouteNo="0" devices="tripinfo_7" vType="DEFAULT_VEHTYPE" speedFactor="0.97" vaporized=""/>
    <tripinfo id="25" depart="146.00" departLane="right1D1_0" departPos="5.10" departSpeed="0.00" departDelay="0.00" arrival="241.00" arrivalLane="D0right0_0" arrivalPos="286.40" arrivalSpeed="13.33" duration="95.00" routeLength="894.86" waitingTime="21.00" waitingCount="1" stopTime="0.00" timeLoss="31.84" rerouteNo="0" devices="tripinfo_25" vType="DEFAULT_VEHTYPE" speedFactor="1.04" vaporized=""/>
    <tripinfo id="31" depart="167.00" departLane="bottom0A0_0" departPos="5.10" departSpeed="0.00" departDelay="0.00" arrival="243.00" arrivalLane="B0bottom1_0" arrivalPos="286.40" arrivalSpeed="12.93" duration="76.00" routeLength="858.56" waitingTime="0.00" waitingCount="0" stopTime="0.00" timeLoss="9.80" rerouteNo="0" devices="tripinfo_31" vType="DEFAULT_VEHTYPE" speedFactor="0.96" vaporized=""/>
    <tripinfo id="18" depart="95.00" departLane="top2C3_0" departPos="5.10" departSpeed="0.00" departDelay="0.00" arrival="260.00" arrivalLane="D2right2_0" arrivalPos="286.40" arrivalSpeed="12.26" duration="165.00" routeLength="1195.18" waitingTime="57.00" waitingCount="2" stopTime="0.00" timeLoss="74.33" rerouteNo="0" devices="tripinfo_18" vType="DEFAULT_VEHTYPE" speedFactor="0.96" vaporized=""/>
    <tripinfo id="47" depart="214.00" departLane="top3D3_0" departPos="5.10" departSpeed="0.00" departDelay="0.00" arrival="271.00" arrivalLane="D3right3_0" arrivalPos="286.40" arrivalSpeed="12.29" duration="57.00" routeLength="597.55" waitingTime="0.00" waitingCount="0" stopTime="0.00" timeLoss="7.71" rerouteNo="0" devices="tripinfo_47" vType="DEFAULT_VEHTYPE" speedFactor="0.89" vaporized=""/>
    <tripinfo id="19" depart="97.00" departLane="top0A3_0" departPos="5.10" departSpeed="0.00" departDelay="0.00" arrival="279.00" arrivalLane="A0bottom0_0" arrivalPos="286.40" arrivalSpeed="13.01" duration="182.00" routeLength="1495.58" waitingTime="51.00" waitingCount="2" stopTime="0.00" timeLoss="71.90" rerouteNo="0" devices="tripinfo_19" vType="DEFAULT_VEHTYPE" speedFactor="0.98" vaporized=""/>
    <tripinfo id="20" depart="114.00" departLane="right1D1_0" departPos="5.10" departSpeed="0.00" departDelay="0.00" arrival="289.00" arrivalLane="A1left1_0" arrivalPos="286.40" arrivalSpeed="12.74" duration="175.00" routeLength="1495.58" waitingTime="43.00" waitingCount="3" stopTime="0.00" timeLoss="65.71" rerouteNo="0" devices="tripinfo_20" vType="DEFAULT_VEHTYPE" speedFactor="0.99" vaporized=""/>
    <tripinfo id="16" depart="75.00" departLane="left2A2_0" departPos="5.10" departSpeed="0.00" departDelay="0.00" arrival="307.00" arrivalLane="D2right2_0" arrivalPos="286.40" arrivalSpeed="13.76" duration="232.00" routeLength="1495.58" waitingTime="109.00" waitingCount="3" stopTime="0.00" timeLoss="131.27" rerouteNo="0" devices="tripinfo_16" vType="DEFAULT_VEHTYPE" speedFactor="1.07" vaporized=""/>
    <tripinfo id="9" depart="34.00" departLane="right1D1_0" departPos="5.10" departSpeed="0.00" departDelay="0.00" arrival="309.00" arrivalLane="D1right1_0" arrivalPos="286.40" arrivalSpeed="14.18" duration="275.00" routeLength="1748.75" waitingTime="119.00" waitingCount="5" stopTime="0.00" timeLoss="153.61" rerouteNo="0" devices="tripinfo_9" vType="DEFAULT_VEHTYPE" speedFactor="1.06" vaporized=""/>
    <tripinfo id="3" depart="15.00" departLane="bottom0A0_0" departPos="5.10" departSpeed="0.00" departDelay="0.00" arrival="330.00" arrivalLane="D3right3_0" arrivalPos="286.40" arrivalSpeed="13.14" duration="315.00" routeLength="2380.45" waitingTime="100.00" waitingCount="5" stopTime="0.00" timeLoss="135.29" rerouteNo="0" devices="tripinfo_3" vType="DEFAULT_VEHTYPE" speedFactor="0.96" vaporized=""/>
    <tripinfo id="38" depart="185.00" departLane="left2A2_0" departPos="5.10" departSpeed="0.00" departDelay="0.00" arrival="339.00" arrivalLane="D2right2_0" arrivalPos="286.40" arrivalSpeed="14.68" duration="154.00" routeLength="1495.58" waitingTime="32.00" waitingCount="2" stopTime="0.00" timeLoss="52.30" rerouteNo="0" devices="tripinfo_38" vType="DEFAULT_VEHTYPE" speedFactor="1.07" vaporized=""/>
    <tripinfo id="21" depart="121.00" departLane="bottom3D0_0" departPos="5.10" departSpeed="0.00" departDelay="0.00" arrival="340.00" arrivalLane="A0left0_0" arrivalPos="286.40" arrivalSpeed="12.42" duration="219.00" routeLength="1495.35" waitingTime="80.00" waitingCount="3" stopTime="0.00" timeLoss="104.68" rerouteNo="0" devices="tripinfo_21" vType="DEFAULT_VEHTYPE" speedFactor="0.95" vaporized=""/>
    <tripinfo id="11" depart="60.00" departLane="top1B3_0" departPos="5.10" departSpeed="0.00" departDelay="0.00" arrival="349.00" arrivalLane="D1right1_0" arrivalPos="286.40" arrivalSpeed="13.56" duration="289.00" routeLength="1795.52" waitingTime="124.00" waitingCount="5" stopTime="0.00" timeLoss="160.09" rerouteNo="0" devices="tripinfo_11" vType="DEFAULT_VEHTYPE" speedFactor="1.01" vaporized=""/>
    <tripinfo id="14" depart="67.00" departLane="top0A3_0" departPos="5.10" departSpeed="0.00" departDelay="0.00" arrival="350.00" arrivalLane="D1right1_1" arrivalPos="286.40" arrivalSpeed="14.08" duration="283.00" routeLength="2095.69" waitingTime="101.00" waitingCount="5" stopTime="0.00" timeLoss="141.83" rerouteNo="0" devices="tripinfo_14" vType="DEFAULT_VEHTYPE" speedFactor="1.07" vaporized=""/>
    <tripinfo id="43" depart="195.00" departLane="bottom1B0_0" departPos="5.10" departSpeed="0.00" departDelay="0.00" arrival="355.00" arrivalLane="D1right1_0" arrivalPos="286.40" arrivalSpeed="12.23" duration="160.00" routeLength="1479.94" waitingTime="20.00" waitingCount="2" stopTime="0.00" timeLoss="42.19" rerouteNo="0" devices="tripinfo_43" vType="DEFAULT_VEHTYPE" speedFactor="0.91" vaporized=""/>
    <tripinfo id="57" depart="255.00" departLane="left3A3_0" departPos="5.10" departSpeed="0.00" departDelay="0.00" arrival="357.00" arrivalLane="A3top0_0" arrivalPos="286.40" arrivalSpeed="14.98" duration="102.00" routeLength="597.55" waitingTime="52.00" waitingCount="1" stopTime="0.00" timeLoss="62.88" rerouteNo="0" devices="tripinfo_57" vType="DEFAULT_VEHTYPE" speedFactor="1.13" vaporized=""/>
    <tripinfo id="49" depart="219.00" departLane="right3D3_0" departPos="5.10" departSpeed="0.00" departDelay="0.00" arrival="371.00" arrivalLane="D3right3_0" arrivalPos="286.40" arrivalSpeed="14.47" duration="152.00" routeLength="1745.91" waitingTime="10.00" waitingCount="3" stopTime="0.00" timeLoss="37.16" rerouteNo="0" devices="tripinfo_49" vType="DEFAULT_VEHTYPE" speedFactor="1.11" vaporized=""/>
    <tripinfo id="63" depart="273.00" departLane="bottom2C0_0" departPos="5.10" departSpeed="0.00" departDelay="0.00" arrival="374.00" arrivalLane="D1right1_0" arrivalPos="286.40" arrivalSpeed="14.00" duration="101.00" routeLength="1179.77" waitingTime="3.00" waitingCount="1" stopTime="0.00" timeLoss="17.03" rerouteNo="0" devices="tripinfo_63" vType="DEFAULT_VEHTYPE" speedFactor="1.03" vaporized=""/>
    <tripinfo id="33" depart="171.00" departLane="top1B3_0" departPos="5.10" departSpeed="0.00" departDelay="0.00" arrival="376.00" arrivalLane="A0left0_0" arrivalPos="286.40" arrivalSpeed="14.08" duration="205.00" routeLength="1780.11" waitingTime="52.00" waitingCount="4" stopTime="0.00" timeLoss="87.43" rerouteNo="0" devices="tripinfo_33" vType="DEFAULT_VEHTYPE" speedFactor="1.10" vaporized=""/>
    <tripinfo id="35" depart="182.00" departLane="right2D2_0" departPos="5.10" departSpeed="0.00" departDelay="0.00" arrival="379.00" arrivalLane="D0right0_0" arrivalPos="286.40" arrivalSpeed="13.77" duration="197.00" routeLength="1197.66" waitingTime="88.00" waitingCount="3" stopTime="0.00" timeLoss="111.68" rerouteNo="0" devices="tripinfo_35" vType="DEFAULT_VEHTYPE" speedFactor="1.03" vaporized=""/>
    <tripinfo id="22" depart="130.00" departLane="right3D3_0" departPos="5.10" departSpeed="0.00" departDelay="0.00" arrival="381.00" arrivalLane="A1left1_0" arrivalPos="286.40" arrivalSpeed="12.81" duration="251.00" routeLength="2080.05" waitingTime="57.00" waitingCount="4" stopTime="0.00" timeLoss="88.66" rerouteNo="0" devices="tripinfo_22" vType="DEFAULT_VEHTYPE" speedFactor="0.93" vaporized=""/>
    <tripinfo id="29" depart="159.00" departLane="bottom0A0_0" departPos="5.10" departSpeed="0.00" departDelay="0.00" arrival="384.00" arrivalLane="D0bottom3_0" arrivalPos="286.40" arrivalSpeed="14.67" duration="225.00" routeLength="1461.60" waitingTime="97.00" waitingCount="3" stopTime="0.00" timeLoss="124.68" rerouteNo="0" devices="tripinfo_29" vType="DEFAULT_VEHTYPE" speedFactor="1.07" vaporized=""/>
    <tripinfo id="37" depart="184.00" departLane="left0A0_0" departPos="5.10" departSpeed="0.00" departDelay="0.00" arrival="388.00" arrivalLane="D0right0_0" arrivalPos="286.40" arrivalSpeed="14.26" duration="204.00" routeLength="1495.58" waitingTime="73.00" waitingCount="2" stopTime="0.00" timeLoss="100.32" rerouteNo="0" devices="tripinfo_37" vType="DEFAULT_VEHTYPE" speedFactor="1.05" vaporized=""/>
    <tripinfo id="58" depart="256.00" departLane="right3D3_0" departPos="5.10" departSpeed="0.00" departDelay="0.00" arrival="389.00" arrivalLane="A3top0_0" arrivalPos="286.40" arrivalSpeed="14.51" duration="133.00" routeLength="1477.24" waitingTime="20.00" waitingCount="1" stopTime="0.00" timeLoss="36.28" rerouteNo="0" devices="tripinfo_58" vType="DEFAULT_VEHTYPE" speedFactor="1.12" vaporized=""/>
    <tripinfo id="27" depart="157.00" departLane="left2A2_0" departPos="5.10" departSpeed="0.00" departDelay="0.00" arrival="390.00" arrivalLane="C3top2_0" arrivalPos="286.40" arrivalSpeed="12.78" duration="233.00" routeLength="1495.35" waitingTime="93.00" waitingCount="4" stopTime="0.00" timeLoss="121.84" rerouteNo="0" devices="tripinfo_27" vType="DEFAULT_VEHTYPE" speedFactor="0.98" vaporized=""/>
    <tripinfo id="36" depart="183.00" departLane="bottom0A0_0" departPos="5.10" departSpeed="0.00" departDelay="0.00" arrival="390.00" arrivalLane="D0bottom3_0" arrivalPos="286.40" arrivalSpeed="12.33" duration="207.00" routeLength="1461.60" waitingTime="63.00" waitingCount="3" stopTime="0.00" timeLoss="88.08" rerouteNo="0" devices="tripinfo_36" vType="DEFAULT_VEHTYPE" speedFactor="0.90" vaporized=""/>
    <tripinfo id="50" depart="225.00" departLane="top0A3_0" departPos="5.10" departSpeed="0.00" departDelay="0.00" arrival="402.00" arrivalLane="D3top3_1" arrivalPos="286.40" arrivalSpeed="12.79" duration="177.00" routeLength="1497.83" waitingTime="29.00" waitingCount="3" stopTime="0.00" timeLoss="66.37" rerouteNo="0" devices="tripinfo_50" vType="DEFAULT_VEHTYPE" speedFactor="0.98" vaporized=""/>
    <tripinfo id="48" depart="217.00" departLane="top0A3_0" departPos="5.10" departSpeed="0.00" departDelay="0.00" arrival="403.00" arrivalLane="D3top3_0" arrivalPos="286.40" arrivalSpeed="11.49" duration="186.00" routeLength="1497.83" waitingTime="33.00" waitingCount="3" stopTime="0.00" timeLoss="59.66" rerouteNo="0" devices="tripinfo_48" vType="DEFAULT_VEHTYPE" speedFactor="0.86" vaporized=""/>
    <tripinfo id="40" depart="191.00" departLane="bottom2C0_0" departPos="5.10" departSpeed="0.00" departDelay="0.00" arrival="407.00" arrivalLane="A0left0_0" arrivalPos="286.40" arrivalSpeed="14.77" duration="216.00" routeLength="1195.18" waitingTime="113.00" waitingCount="3" stopTime="0.00" timeLoss="137.49" rerouteNo="0" devices="tripinfo_40" vType="DEFAULT_VEHTYPE" speedFactor="1.11" vaporized=""/>
    <tripinfo id="54" depart="241.00" departLane="right0D0_0" departPos="5.10" departSpeed="0.00" departDelay="0.00" arrival="407.00" arrivalLane="C3top2_0" arrivalPos="286.40" arrivalSpeed="15.18" duration="166.00" routeLength="1780.11" waitingTime="16.00" waitingCount="4" stopTime="0.00" timeLoss="48.46" rerouteNo="0" devices="tripinfo_54" vType="DEFAULT_VEHTYPE" speedFactor="1.10" vaporized=""/>
    <tripinfo id="68" depart="313.00" departLane="left2A2_0" departPos="5.10" departSpeed="0.00" departDelay="0.00" arrival="408.00" arrivalLane="B3top1_0" arrivalPos="286.40" arrivalSpeed="14.46" duration="95.00" routeLength="1195.18" waitingTime="3.00" waitingCount="1" stopTime="0.00" timeLoss="14.38" rerouteNo="0" devices="tripinfo_68" vType="DEFAULT_VEHTYPE" speedFactor="1.08" vaporized=""/>
    <tripinfo id="46" depart="208.00" departLane="right1D1_0" departPos="5.10" departSpeed="0.00" departDelay="0.00" arrival="411.00" arrivalLane="A0left0_0" arrivalPos="286.40" arrivalSpeed="13.85" duration="203.00" routeLength="1782.59" waitingTime="37.00" waitingCount="5" stopTime="0.00" timeLoss="74.98" rerouteNo="0" devices="tripinfo_46" vType="DEFAULT_VEHTYPE" speedFactor="1.02" vaporized=""/>
    <tripinfo id="62" depart="269.00" departLane="left2A2_0" departPos="5.10" departSpeed="0.00" departDelay="0.00" arrival="412.00" arrivalLane="A3top0_0" arrivalPos="286.40" arrivalSpeed="12.64" duration="143.00" routeLength="895.01" waitingTime="55.00" waitingCount="2" stopTime="0.00" timeLoss="71.06" rerouteNo="0" devices="tripinfo_62" vType="DEFAULT_VEHTYPE" speedFactor="0.91" vaporized=""/>
    <tripinfo id="34" depart="174.00" departLane="top1B3_0" departPos="5.10" departSpeed="0.00" departDelay="2.00" arrival="417.00" arrivalLane="D1right1_0" arrivalPos="286.40" arrivalSpeed="15.42" duration="243.00" routeLength="1795.52" waitingTime="88.00" waitingCount="5" stopTime="0.00" timeLoss="128.56" rerouteNo="0" devices="tripinfo_34" vType="DEFAULT_VEHTYPE" speedFactor="1.14" vaporized=""/>
    <tripinfo id="56" depart="250.00" departLane="top2C3_0" departPos="5.10" departSpeed="0.00" departDelay="0.00" arrival="427.00" arrivalLane="D0bottom3_0" arrivalPos="286.40" arrivalSpeed="14.68" duration="177.00" routeLength="1782.59" waitingTime="28.00" waitingCount="4" stopTime="0.00" timeLoss="60.46" rerouteNo="0" devices="tripinfo_56" vType="DEFAULT_VEHTYPE" speedFactor="1.12" vaporized=""/>
    <tripinfo id="30" depart="164.00" departLane="bottom2C0_0" departPos="5.10" departSpeed="0.00" departDelay="0.00" arrival="428.00" arrivalLane="A3left3_0" arrivalPos="286.40" arrivalSpeed="14.87" duration="264.00" routeLength="2095.69" waitingTime="95.00" waitingCount="3" stopTime="0.00" timeLoss="123.23" rerouteNo="0" devices="tripinfo_30" vType="DEFAULT_VEHTYPE" speedFactor="1.08" vaporized=""/>
    <tripinfo id="24" depart="142.00" departLane="right3D3_0" departPos="5.10" departSpeed="0.00" departDelay="0.00" arrival="437.00" arrivalLane="A0left0_0" arrivalPos="286.40" arrivalSpeed="15.49" duration="295.00" routeLength="2380.22" waitingTime="88.00" waitingCount="6" stopTime="0.00" timeLoss="141.47" rerouteNo="0" devices="tripinfo_24" vType="DEFAULT_VEHTYPE" speedFactor="1.13" vaporized=""/>
    <tripinfo id="65" depart="291.00" departLane="right3D3_0" departPos="5.10" departSpeed="0.00" departDelay="0.00" arrival="439.00" arrivalLane="D0right0_0" arrivalPos="286.40" arrivalSpeed="13.24" duration="148.00" routeLength="1497.83" waitingTime="20.00" waitingCount="1" stopTime="0.00" timeLoss="34.05" rerouteNo="0" devices="tripinfo_65" vType="DEFAULT_VEHTYPE" speedFactor="0.96" vaporized=""/>
    <tripinfo id="73" depart="332.00" departLane="left2A2_0" departPos="5.10" departSpeed="0.00" departDelay="0.00" arrival="447.00" arrivalLane="B3top1_0" arrivalPos="286.40" arrivalSpeed="14.31" duration="115.00" routeLength="1195.18" waitingTime="18.00" waitingCount="2" stopTime="0.00" timeLoss="36.25" rerouteNo="0" devices="tripinfo_73" vType="DEFAULT_VEHTYPE" speedFactor="1.11" vaporized=""/>
    <tripinfo id="39" depart="187.00" departLane="left3A3_0" departPos="5.10" departSpeed="0.00" departDelay="0.00" arrival="450.00" arrivalLane="C0bottom2_0" arrivalPos="286.40" arrivalSpeed="13.10" duration="263.00" routeLength="2080.28" waitingTime="78.00" waitingCount="3" stopTime="0.00" timeLoss="109.49" rerouteNo="0" devices="tripinfo_39" vType="DEFAULT_VEHTYPE" speedFactor="0.98" vaporized=""/>
    <tripinfo id="59" depart="261.00" departLane="left3A3_0" departPos="5.10" departSpeed="0.00" departDelay="0.00" arrival="457.00" arrivalLane="A0left0_0" arrivalPos="286.40" arrivalSpeed="11.91" duration="196.00" routeLength="1461.60" waitingTime="58.00" waitingCount="1" stopTime="0.00" timeLoss="78.73" rerouteNo="0" devices="tripinfo_59" vType="DEFAULT_VEHTYPE" speedFactor="0.92" vaporized=""/>
    <tripinfo id="66" depart="299.00" departLane="right0D0_0" departPos="5.10" departSpeed="0.00" departDelay="0.00" arrival="458.00" arrivalLane="A0bottom0_0" arrivalPos="286.40" arrivalSpeed="13.21" duration="159.00" routeLength="1498.06" waitingTime="35.00" waitingCount="2" stopTime="0.00" timeLoss="55.01" rerouteNo="0" devices="tripinfo_66" vType="DEFAULT_VEHTYPE" speedFactor="1.04" vaporized=""/>
    <tripinfo id="67" depart="302.00" departLane="right0D0_0" departPos="5.10" departSpeed="0.00" departDelay="2.00" arrival="461.00" arrivalLane="B0bottom1_0" arrivalPos="286.40" arrivalSpeed="12.99" duration="159.00" routeLength="1197.89" waitingTime="47.00" waitingCount="2" stopTime="0.00" timeLoss="66.79" rerouteNo="0" devices="tripinfo_67" vType="DEFAULT_VEHTYPE" speedFactor="0.95" vaporized=""/>
    <tripinfo id="55" depart="248.00" departLane="right1D1_0" departPos="5.10" departSpeed="0.00" departDelay="0.00" arrival="480.00" arrivalLane="A0left0_0" arrivalPos="286.40" arrivalSpeed="14.15" duration="232.00" routeLength="1782.59" waitingTime="75.00" waitingCount="4" stopTime="0.00" timeLoss="105.94" rerouteNo="0" devices="tripinfo_55" vType="DEFAULT_VEHTYPE" speedFactor="1.03" vaporized=""/>
    <tripinfo id="61" depart="266.00" departLane="top2C3_0" departPos="5.10" departSpeed="0.00" departDelay="0.00" arrival="488.00" arrivalLane="D0right0_0" arrivalPos="286.40" arrivalSpeed="14.33" duration="222.00" routeLength="1795.52" waitingTime="57.00" waitingCount="4" stopTime="0.00" timeLoss="97.57" rerouteNo="0" devices="tripinfo_61" vType="DEFAULT_VEHTYPE" speedFactor="1.04" vaporized=""/>
    <tripinfo id="70" depart="319.00" departLane="top0A3_0" departPos="5.10" departSpeed="0.00" departDelay="0.00" arrival="494.00" arrivalLane="A1left1_0" arrivalPos="286.40" arrivalSpeed="12.80" duration="175.00" routeLength="1177.07" waitingTime="68.00" waitingCount="2" stopTime="0.00" timeLoss="87.03" rerouteNo="0" devices="tripinfo_70" vType="DEFAULT_VEHTYPE" speedFactor="0.98" vaporized=""/>
    <tripinfo id="45" depart="204.00" departLane="bottom0A0_0" departPos="5.10" departSpeed="0.00" departDelay="0.00" arrival="498.00" arrivalLane="D2right2_0" arrivalPos="286.40" arrivalSpeed="13.62" duration="294.00" routeLength="2080.28" waitingTime="118.00" waitingCount="4" stopTime="0.00" timeLoss="149.93" rerouteNo="0" devices="tripinfo_45" vType="DEFAULT_VEHTYPE" speedFactor="1.04" vaporized=""/>
    <tripinfo id="71" depart="323.00" departLane="top1B3_0" departPos="5.10" departSpeed="0.00" departDelay="0.00" arrival="504.00" arrivalLane="A2left2_0" arrivalPos="286.40" arrivalSpeed="11.24" duration="181.00" routeLength="1179.77" waitingTime="52.00" waitingCount="3" stopTime="0.00" timeLoss="78.18" rerouteNo="0" devices="tripinfo_71" vType="DEFAULT_VEHTYPE" speedFactor="0.84" vaporized=""/>
    <tripinfo id="52" depart="230.00" departLane="bottom0A0_0" departPos="5.10" departSpeed="0.00" departDelay="0.00" arrival="506.00" arrivalLane="D2right2_0" arrivalPos="286.40" arrivalSpeed="12.03" duration="276.00" routeLength="2080.28" waitingTime="82.00" waitingCount="3" stopTime="0.00" timeLoss="111.52" rerouteNo="0" devices="tripinfo_52" vType="DEFAULT_VEHTYPE" speedFactor="0.92" vaporized=""/>
    <tripinfo id="51" depart="229.00" departLane="top3D3_0" departPos="5.10" departSpeed="0.00" departDelay="0.00" arrival="509.00" arrivalLane="B0bottom1_0" arrivalPos="286.40" arrivalSpeed="13.70" duration="280.00" routeLength="2082.76" waitingTime="90.00" waitingCount="6" stopTime="0.00" timeLoss="132.79" rerouteNo="0" devices="tripinfo_51" vType="DEFAULT_VEHTYPE" speedFactor="1.03" vaporized=""/>
    <tripinfo id="79" depart="355.00" departLane="right3D3_0" departPos="5.10" departSpeed="0.00" departDelay="0.00" arrival="528.00" arrivalLane="D1right1_0" arrivalPos="286.40" arrivalSpeed="13.92" duration="173.00" routeLength="1197.66" waitingTime="71.00" waitingCount="1" stopTime="0.00" timeLoss="90.17" rerouteNo="0" devices="tripinfo_79" vType="DEFAULT_VEHTYPE" speedFactor="1.06" vaporized=""/>
    <tripinfo id="32" depart="170.00" departLane="right3D3_0" departPos="5.10" departSpeed="0.00" departDelay="0.00" arrival="537.00" arrivalLane="A0left0_0" arrivalPos="286.40" arrivalSpeed="15.20" duration="367.00" routeLength="2380.22" waitingTime="163.00" waitingCount="5" stopTime="0.00" timeLoss="209.73" rerouteNo="0" devices="tripinfo_32" vType="DEFAULT_VEHTYPE" speedFactor="1.10" vaporized=""/>
    <tripinfo id="69" depart="316.00" departLane="top1B3_0" departPos="5.10" departSpeed="0.00" departDelay="0.00" arrival="538.00" arrivalLane="D1right1_0" arrivalPos="286.40" arrivalSpeed="14.00" duration="222.00" routeLength="1795.52" waitingTime="64.00" waitingCount="4" stopTime="0.00" timeLoss="97.76" rerouteNo="0" devices="tripinfo_69" vType="DEFAULT_VEHTYPE" speedFactor="1.05" vaporized=""/>
    <tripinfo id="76" depart="347.00" departLane="right2D2_0" departPos="5.10" departSpeed="0.00" departDelay="0.00" arrival="539.00" arrivalLane="D0bottom3_0" arrivalPos="286.40" arrivalSpeed="12.77" duration="192.00" routeLength="1195.18" waitingTime="85.00" waitingCount="3" stopTime="0.00" timeLoss="105.00" rerouteNo="0" devices="tripinfo_76" vType="DEFAULT_VEHTYPE" speedFactor="1.00" vaporized=""/>
    <tripinfo id="60" depart="263.00" departLane="right3D3_0" departPos="5.10" departSpeed="0.00" departDelay="0.00" arrival="542.00" arrivalLane="A0left0_0" arrivalPos="286.40" arrivalSpeed="12.91" duration="279.00" routeLength="2380.22" waitingTime="63.00" waitingCount="5" stopTime="0.00" timeLoss="101.34" rerouteNo="0" devices="tripinfo_60" vType="DEFAULT_VEHTYPE" speedFactor="0.97" vaporized=""/>
    <tripinfo id="41" depart="194.00" departLane="left0A0_0" departPos="5.10" departSpeed="0.00" departDelay="0.00" arrival="557.00" arrivalLane="D3top3_0" arrivalPos="286.40" arrivalSpeed="11.30" duration="363.00" routeLength="2395.86" waitingTime="134.00" waitingCount="5" stopTime="0.00" timeLoss="171.58" rerouteNo="0" devices="tripinfo_41" vType="DEFAULT_VEHTYPE" speedFactor="0.91" vaporized=""/>