<?xml version="1.0" encoding="UTF-8"?>

<!-- generated on 12/19/21 11:28:59 by Eclipse SUMO sumo Version 1.7.0
<configuration xmlns:xsi="http://www.w3.org/2001/XMLSchema-instance" xsi:noNamespaceSchemaLocation="http://sumo.dlr.de/xsd/sumoConfiguration.xsd">

    <input>
        <net-file value="C:\Users\longs\Desktop\RESCO-main\environments\grid4x4\grid4x4.net.xml"/>
        <route-files value="C:\Users\longs\Desktop\RESCO-main\environments\grid4x4\grid4x4_42.rou.xml"/>
    </input>

    <output>
        <tripinfo-output value="C:\Users\longs\Desktop\RESCO-main\logs\IDQN-tr1-grid4x4-0-drqlong-delaydiff_pressure01\tripinfo_42.xml"/>
        <tripinfo-output.write-unfinished value="true"/>
    </output>

    <processing>
        <time-to-teleport value="-1"/>
    </processing>

    <report>
        <no-warnings value="true"/>
        <no-step-log value="true"/>
    </report>

    <traci_server>
        <remote-port value="50701"/>
    </traci_server>

    <random_number>
        <random value="true"/>
    </random_number>

</configuration>
-->

<tripinfos xmlns:xsi="http://www.w3.org/2001/XMLSchema-instance" xsi:noNamespaceSchemaLocation="http://sumo.dlr.de/xsd/tripinfo_file.xsd">
    <tripinfo id="2" depart="5.00" departLane="right3D3_0" departPos="5.10" departSpeed="0.00" departDelay="0.00" arrival="98.00" arrivalLane="D2right2_0" arrivalPos="286.40" arrivalSpeed="14.91" duration="93.00" routeLength="894.86" waitingTime="16.00" waitingCount="2" stopTime="0.00" timeLoss="32.11" rerouteNo="0" devices="tripinfo_2" vType="DEFAULT_VEHTYPE" speedFactor="1.09" vaporized=""/>
    <tripinfo id="3" depart="15.00" departLane="right1D1_0" departPos="5.10" departSpeed="0.00" departDelay="0.00" arrival="108.00" arrivalLane="D0right0_0" arrivalPos="286.40" arrivalSpeed="14.16" duration="93.00" routeLength="894.86" waitingTime="16.00" waitingCount="2" stopTime="0.00" timeLoss="31.76" rerouteNo="0" devices="tripinfo_3" vType="DEFAULT_VEHTYPE" speedFactor="1.08" vaporized=""/>
    <tripinfo id="11" depart="46.00" departLane="bottom3D0_0" departPos="5.10" departSpeed="0.00" departDelay="0.00" arrival="127.00" arrivalLane="C0bottom2_0" arrivalPos="286.40" arrivalSpeed="15.12" duration="81.00" routeLength="894.86" waitingTime="11.00" waitingCount="1" stopTime="0.00" timeLoss="23.01" rerouteNo="0" devices="tripinfo_11" vType="DEFAULT_VEHTYPE" speedFactor="1.13" vaporized=""/>
    <tripinfo id="1" depart="3.00" departLane="bottom2C0_0" departPos="5.10" departSpeed="0.00" departDelay="0.00" arrival="140.00" arrivalLane="C3top2_0" arrivalPos="286.40" arrivalSpeed="13.07" duration="137.00" routeLength="1495.58" waitingTime="16.00" waitingCount="2" stopTime="0.00" timeLoss="32.10" rerouteNo="0" devices="tripinfo_1" vType="DEFAULT_VEHTYPE" speedFactor="1.03" vaporized=""/>
    <tripinfo id="19" depart="96.00" departLane="left0A0_0" departPos="5.10" departSpeed="0.00" departDelay="0.00" arrival="144.00" arrivalLane="A0bottom0_0" arrivalPos="286.40" arrivalSpeed="16.08" duration="48.00" routeLength="576.73" waitingTime="1.00" waitingCount="1" stopTime="0.00" timeLoss="11.87" rerouteNo="0" devices="tripinfo_19" vType="DEFAULT_VEHTYPE" speedFactor="1.19" vaporized=""/>
    <tripinfo id="9" depart="46.00" departLane="right1D1_0" departPos="5.10" departSpeed="0.00" departDelay="0.00" arrival="148.00" arrivalLane="D0bottom3_0" arrivalPos="286.40" arrivalSpeed="14.46" duration="102.00" routeLength="895.01" waitingTime="25.00" waitingCount="2" stopTime="0.00" timeLoss="40.87" rerouteNo="0" devices="tripinfo_9" vType="DEFAULT_VEHTYPE" speedFactor="1.06" vaporized=""/>
    <tripinfo id="12" depart="50.00" departLane="bottom0A0_0" departPos="5.10" departSpeed="0.00" departDelay="0.00" arrival="151.00" arrivalLane="C0bottom2_0" arrivalPos="286.40" arrivalSpeed="12.56" duration="101.00" routeLength="1161.43" waitingTime="1.00" waitingCount="1" stopTime="0.00" timeLoss="14.35" rerouteNo="0" devices="tripinfo_12" vType="DEFAULT_VEHTYPE" speedFactor="0.99" vaporized=""/>
    <tripinfo id="5" depart="32.00" departLane="left1A1_0" departPos="5.10" departSpeed="0.00" departDelay="0.00" arrival="181.00" arrivalLane="C0bottom2_0" arrivalPos="286.40" arrivalSpeed="11.20" duration="149.00" routeLength="1479.94" waitingTime="10.00" waitingCount="2" stopTime="0.00" timeLoss="28.41" rerouteNo="0" devices="tripinfo_5" vType="DEFAULT_VEHTYPE" speedFactor="0.89" vaporized=""/>
    <tripinfo id="0" depart="1.00" departLane="right1D1_0" departPos="5.10" departSpeed="0.00" departDelay="0.00" arrival="191.00" arrivalLane="D1right1_0" arrivalPos="286.40" arrivalSpeed="12.99" duration="190.00" routeLength="1748.75" waitingTime="24.00" waitingCount="3" stopTime="0.00" timeLoss="54.57" rerouteNo="0" devices="tripinfo_0" vType="DEFAULT_VEHTYPE" speedFactor="0.95" vaporized=""/>
    <tripinfo id="4" depart="30.00" departLane="left2A2_0" departPos="5.10" departSpeed="0.00" departDelay="0.00" arrival="191.00" arrivalLane="B0bottom1_0" arrivalPos="286.40" arrivalSpeed="11.52" duration="161.00" routeLength="1479.94" waitingTime="23.00" waitingCount="3" stopTime="0.00" timeLoss="43.32" rerouteNo="0" devices="tripinfo_4" vType="DEFAULT_VEHTYPE" speedFactor="0.92" vaporized=""/>
    <tripinfo id="7" depart="39.00" departLane="bottom1B0_0" departPos="5.10" departSpeed="0.00" departDelay="0.00" arrival="192.00" arrivalLane="B3top1_0" arrivalPos="286.40" arrivalSpeed="11.56" duration="153.00" routeLength="1495.58" waitingTime="7.00" waitingCount="2" stopTime="0.00" timeLoss="27.44" rerouteNo="0" devices="tripinfo_7" vType="DEFAULT_VEHTYPE" speedFactor="0.86" vaporized=""/>
    <tripinfo id="23" depart="122.00" departLane="left0A0_0" departPos="5.10" departSpeed="0.00" departDelay="0.00" arrival="216.00" arrivalLane="B0bottom1_0" arrivalPos="286.40" arrivalSpeed="12.29" duration="94.00" routeLength="876.90" waitingTime="13.00" waitingCount="1" stopTime="0.00" timeLoss="24.84" rerouteNo="0" devices="tripinfo_23" vType="DEFAULT_VEHTYPE" speedFactor="0.93" vaporized=""/>
    <tripinfo id="8" depart="42.00" departLane="bottom1B0_0" departPos="5.10" departSpeed="0.00" departDelay="2.00" arrival="230.00" arrivalLane="A3left3_0" arrivalPos="286.40" arrivalSpeed="12.01" duration="188.00" routeLength="1795.52" waitingTime="19.00" waitingCount="3" stopTime="0.00" timeLoss="51.23" rerouteNo="0" devices="tripinfo_8" vType="DEFAULT_VEHTYPE" speedFactor="0.95" vaporized=""/>
    <tripinfo id="15" depart="75.00" departLane="right3D3_0" departPos="5.10" departSpeed="0.00" departDelay="1.00" arrival="231.00" arrivalLane="A3left3_1" arrivalPos="286.40" arrivalSpeed="13.87" duration="156.00" routeLength="1495.58" waitingTime="18.00" waitingCount="4" stopTime="0.00" timeLoss="48.81" rerouteNo="0" devices="tripinfo_15" vType="DEFAULT_VEHTYPE" speedFactor="1.01" vaporized=""/>
    <tripinfo id="6" depart="39.00" departLane="top0A3_0" departPos="5.10" departSpeed="0.00" departDelay="0.00" arrival="240.00" arrivalLane="D2right2_0" arrivalPos="286.40" arrivalSpeed="13.60" duration="201.00" routeLength="1795.52" waitingTime="55.00" waitingCount="2" stopTime="0.00" timeLoss="76.42" rerouteNo="0" devices="tripinfo_6" vType="DEFAULT_VEHTYPE" speedFactor="1.04" vaporized=""/>
    <tripinfo id="13" depart="65.00" departLane="left2A2_0" departPos="5.10" departSpeed="0.00" departDelay="0.00" arrival="240.00" arrivalLane="A2left2_0" arrivalPos="286.40" arrivalSpeed="13.70" duration="175.00" routeLength="1748.75" waitingTime="16.00" waitingCount="4" stopTime="0.00" timeLoss="46.63" rerouteNo="0" devices="tripinfo_13" vType="DEFAULT_VEHTYPE" speedFactor="1.00" vaporized=""/>
    <tripinfo id="10" depart="46.00" departLane="bottom1B0_0" departPos="5.10" departSpeed="0.00" departDelay="0.00" arrival="248.00" arrivalLane="A3top0_1" arrivalPos="286.40" arrivalSpeed="14.93" duration="202.00" routeLength="1782.59" waitingTime="42.00" waitingCount="5" stopTime="0.00" timeLoss="90.10" rerouteNo="0" devices="tripinfo_10" vType="DEFAULT_VEHTYPE" speedFactor="1.15" vaporized=""/>
    <tripinfo id="16" depart="80.00" departLane="right2D2_0" departPos="5.10" departSpeed="0.00" departDelay="0.00" arrival="252.00" arrivalLane="A3top0_0" arrivalPos="286.40" arrivalSpeed="11.24" duration="172.00" routeLength="1780.11" waitingTime="5.00" waitingCount="2" stopTime="0.00" timeLoss="23.39" rerouteNo="0" devices="tripinfo_16" vType="DEFAULT_VEHTYPE" speedFactor="0.87" vaporized=""/>
    <tripinfo id="17" depart="91.00" departLane="right3D3_0" departPos="5.10" departSpeed="0.00" departDelay="0.00" arrival="256.00" arrivalLane="D0bottom3_0" arrivalPos="286.40" arrivalSpeed="15.80" duration="165.00" routeLength="1495.35" waitingTime="38.00" waitingCount="4" stopTime="0.00" timeLoss="70.35" rerouteNo="0" devices="tripinfo_17" vType="DEFAULT_VEHTYPE" speedFactor="1.14" vaporized=""/>
    <tripinfo id="21" depart="108.00" departLane="bottom2C0_0" departPos="5.10" departSpeed="0.00" departDelay="0.00" arrival="256.00" arrivalLane="D2right2_0" arrivalPos="286.40" arrivalSpeed="15.08" duration="148.00" routeLength="1479.94" waitingTime="27.00" waitingCount="3" stopTime="0.00" timeLoss="52.56" rerouteNo="0" devices="tripinfo_21" vType="DEFAULT_VEHTYPE" speedFactor="1.12" vaporized=""/>
    <tripinfo id="30" depart="179.00" departLane="bottom3D0_0" departPos="5.10" departSpeed="0.00" departDelay="0.00" arrival="259.00" arrivalLane="D1right1_0" arrivalPos="286.40" arrivalSpeed="12.27" duration="80.00" routeLength="876.90" waitingTime="0.00" waitingCount="0" stopTime="0.00" timeLoss="8.08" rerouteNo="0" devices="tripinfo_30" vType="DEFAULT_VEHTYPE" speedFactor="0.90" vaporized=""/>
    <tripinfo id="14" depart="72.00" departLane="right3D3_0" departPos="5.10" departSpeed="0.00" departDelay="0.00" arrival="264.00" arrivalLane="A2left2_0" arrivalPos="286.40" arrivalSpeed="12.72" duration="192.00" routeLength="1782.59" waitingTime="24.00" waitingCount="4" stopTime="0.00" timeLoss="55.76" rerouteNo="0" devices="tripinfo_14" vType="DEFAULT_VEHTYPE" speedFactor="0.95" vaporized=""/>
    <tripinfo id="18" depart="95.00" departLane="left3A3_0" departPos="5.10" departSpeed="0.00" departDelay="0.00" arrival="279.00" arrivalLane="C0bottom2_0" arrivalPos="286.40" arrivalSpeed="14.20" duration="184.00" routeLength="2080.28" waitingTime="13.00" waitingCount="4" stopTime="0.00" timeLoss="43.50" rerouteNo="0" devices="tripinfo_18" vType="DEFAULT_VEHTYPE" speedFactor="1.07" vaporized=""/>
    <tripinfo id="39" depart="217.00" departLane="right3D3_0" departPos="5.10" departSpeed="0.00" departDelay="0.00" arrival="279.00" arrivalLane="D3top3_0" arrivalPos="286.40" arrivalSpeed="11.07" duration="62.00" routeLength="576.73" waitingTime="1.00" waitingCount="1" stopTime="0.00" timeLoss="10.90" rerouteNo="0" devices="tripinfo_39" vType="DEFAULT_VEHTYPE" speedFactor="0.82" vaporized=""/>
    <tripinfo id="28" depart="177.00" departLane="top1B3_0" departPos="5.10" departSpeed="0.00" departDelay="0.00" arrival="282.00" arrivalLane="D3right3_1" arrivalPos="286.40" arrivalSpeed="12.82" duration="105.00" routeLength="1195.18" waitingTime="1.00" waitingCount="1" stopTime="0.00" timeLoss="15.78" rerouteNo="0" devices="tripinfo_28" vType="DEFAULT_VEHTYPE" speedFactor="0.98" vaporized=""/>
    <tripinfo id="22" depart="109.00" departLane="top0A3_0" departPos="5.10" departSpeed="0.00" departDelay="0.00" arrival="285.00" arrivalLane="D3right3_0" arrivalPos="286.40" arrivalSpeed="10.08" duration="176.00" routeLength="1495.35" waitingTime="17.00" waitingCount="3" stopTime="0.00" timeLoss="40.61" rerouteNo="0" devices="tripinfo_22" vType="DEFAULT_VEHTYPE" speedFactor="0.80" vaporized=""/>
    <tripinfo id="29" depart="177.00" departLane="left1A1_0" departPos="5.10" departSpeed="0.00" departDelay="0.00" arrival="291.00" arrivalLane="A3top0_0" arrivalPos="286.40" arrivalSpeed="13.19" duration="114.00" routeLength="1195.18" waitingTime="12.00" waitingCount="2" stopTime="0.00" timeLoss="28.92" rerouteNo="0" devices="tripinfo_29" vType="DEFAULT_VEHTYPE" speedFactor="1.02" vaporized=""/>
    <tripinfo id="35" depart="203.00" departLane="left0A0_0" departPos="5.10" departSpeed="0.00" departDelay="0.00" arrival="300.00" arrivalLane="B0bottom1_0" arrivalPos="286.40" arrivalSpeed="11.41" duration="97.00" routeLength="876.90" waitingTime="11.00" waitingCount="2" stopTime="0.00" timeLoss="26.41" rerouteNo="0" devices="tripinfo_35" vType="DEFAULT_VEHTYPE" speedFactor="0.91" vaporized=""/>
    <tripinfo id="25" depart="132.00" departLane="left0A0_0" departPos="5.10" departSpeed="0.00" departDelay="0.00" arrival="309.00" arrivalLane="D1right1_0" arrivalPos="286.40" arrivalSpeed="13.41" duration="177.00" routeLength="1782.59" waitingTime="16.00" waitingCount="3" stopTime="0.00" timeLoss="46.86" rerouteNo="0" devices="tripinfo_25" vType="DEFAULT_VEHTYPE" speedFactor="1.00" vaporized=""/>
    <tripinfo id="20" depart="103.00" departLane="right1D1_0" departPos="5.10" departSpeed="0.00" departDelay="0.00" arrival="312.00" arrivalLane="B3top1_0" arrivalPos="286.40" arrivalSpeed="11.91" duration="209.00" routeLength="1780.11" waitingTime="29.00" waitingCount="2" stopTime="0.00" timeLoss="61.22" rerouteNo="0" devices="tripinfo_20" vType="DEFAULT_VEHTYPE" speedFactor="0.87" vaporized=""/>
    <tripinfo id="45" depart="242.00" departLane="top2C3_0" departPos="5.10" departSpeed="0.00" departDelay="0.00" arrival="332.00" arrivalLane="B3top1_0" arrivalPos="286.40" arrivalSpeed="10.82" duration="90.00" routeLength="858.56" waitingTime="1.00" waitingCount="1" stopTime="0.00" timeLoss="14.59" rerouteNo="0" devices="tripinfo_45" vType="DEFAULT_VEHTYPE" speedFactor="0.83" vaporized=""/>
    <tripinfo id="24" depart="122.00" departLane="right3D3_0" departPos="5.10" departSpeed="0.00" departDelay="0.00" arrival="335.00" arrivalLane="D0bottom3_0" arrivalPos="286.40" arrivalSpeed="10.09" duration="213.00" routeLength="1495.35" waitingTime="53.00" waitingCount="3" stopTime="0.00" timeLoss="78.38" rerouteNo="0" devices="tripinfo_24" vType="DEFAULT_VEHTYPE" speedFactor="0.81" vaporized=""/>
    <tripinfo id="42" depart="235.00" departLane="bottom1B0_0" departPos="5.10" departSpeed="0.00" departDelay="0.00" arrival="335.00" arrivalLane="A0left0_0" arrivalPos="286.40" arrivalSpeed="15.95" duration="100.00" routeLength="895.01" waitingTime="28.00" waitingCount="2" stopTime="0.00" timeLoss="44.46" rerouteNo="0" devices="tripinfo_42" vType="DEFAULT_VEHTYPE" speedFactor="1.17" vaporized=""/>
    <tripinfo id="27" depart="176.00" departLane="left0A0_0" departPos="5.10" departSpeed="0.00" departDelay="0.00" arrival="338.00" arrivalLane="A0left0_0" arrivalPos="286.40" arrivalSpeed="14.88" duration="162.00" routeLength="1745.91" waitingTime="14.00" waitingCount="4" stopTime="0.00" timeLoss="46.88" rerouteNo="0" devices="tripinfo_27" vType="DEFAULT_VEHTYPE" speedFactor="1.11" vaporized=""/>
    <tripinfo id="47" depart="265.00" departLane="bottom2C0_0" departPos="5.10" departSpeed="0.00" departDelay="0.00" arrival="344.00" arrivalLane="D0right0_0" arrivalPos="286.40" arrivalSpeed="12.82" duration="79.00" routeLength="879.60" waitingTime="1.00" waitingCount="1" stopTime="0.00" timeLoss="12.42" rerouteNo="0" devices="tripinfo_47" vType="DEFAULT_VEHTYPE" speedFactor="0.96" vaporized=""/>
    <tripinfo id="31" depart="180.00" departLane="left1A1_0" departPos="5.10" departSpeed="0.00" departDelay="0.00" arrival="348.00" arrivalLane="C0bottom2_0" arrivalPos="286.40" arrivalSpeed="10.01" duration="168.00" routeLength="1479.94" waitingTime="9.00" waitingCount="2" stopTime="0.00" timeLoss="32.62" rerouteNo="0" devices="tripinfo_31" vType="DEFAULT_VEHTYPE" speedFactor="0.80" vaporized=""/>
    <tripinfo id="33" depart="192.00" departLane="top0A3_0" departPos="5.10" departSpeed="0.00" departDelay="0.00" arrival="348.00" arrivalLane="A3top0_0" arrivalPos="286.40" arrivalSpeed="13.83" duration="156.00" routeLength="1745.91" waitingTime="11.00" waitingCount="2" stopTime="0.00" timeLoss="35.15" rerouteNo="0" devices="tripinfo_33" vType="DEFAULT_VEHTYPE" speedFactor="1.06" vaporized=""/>
    <tripinfo id="34" depart="192.00" departLane="left1A1_0" departPos="5.10" departSpeed="0.00" departDelay="0.00" arrival="361.00" arrivalLane="D2right2_0" arrivalPos="286.40" arrivalSpeed="12.33" duration="169.00" routeLength="1782.59" waitingTime="7.00" waitingCount="3" stopTime="0.00" timeLoss="31.94" rerouteNo="0" devices="tripinfo_34" vType="DEFAULT_VEHTYPE" speedFactor="0.95" vaporized=""/>
    <tripinfo id="32" depart="188.00" departLane="top1B3_0" departPos="5.10" departSpeed="0.00" departDelay="0.00" arrival="380.00" arrivalLane="C0bottom2_0" arrivalPos="286.40" arrivalSpeed="12.90" duration="192.00" routeLength="1782.59" waitingTime="30.00" waitingCount="4" stopTime="0.00" timeLoss="60.60" rerouteNo="0" devices="tripinfo_32" vType="DEFAULT_VEHTYPE" speedFactor="0.99" vaporized=""/>
    <tripinfo id="50" depart="276.00" departLane="top0A3_0" departPos="5.10" departSpeed="0.00" departDelay="0.00" arrival="382.00" arrivalLane="B3top1_0" arrivalPos="286.40" arrivalSpeed="12.36" duration="106.00" routeLength="894.86" waitingTime="16.00" waitingCount="2" stopTime="0.00" timeLoss="32.56" rerouteNo="0" devices="tripinfo_50" vType="DEFAULT_VEHTYPE" speedFactor="0.89" vaporized=""/>
    <tripinfo id="43" depart="237.00" departLane="bottom3D0_0" departPos="5.10" departSpeed="0.00" departDelay="0.00" arrival="387.00" arrivalLane="D3top3_0" arrivalPos="286.40" arrivalSpeed="14.87" duration="150.00" routeLength="1495.58" waitingTime="25.00" waitingCount="3" stopTime="0.00" timeLoss="52.48" rerouteNo="0" devices="tripinfo_43" vType="DEFAULT_VEHTYPE" speedFactor="1.11" vaporized=""/>
    <tripinfo id="41" depart="226.00" departLane="top0A3_0" departPos="5.10" departSpeed="0.00" departDelay="0.00" arrival="411.00" arrivalLane="A0bottom0_0" arrivalPos="286.40" arrivalSpeed="12.11" duration="185.00" routeLength="1495.58" waitingTime="42.00" waitingCount="4" stopTime="0.00" timeLoss="70.36" rerouteNo="0" devices="tripinfo_41" vType="DEFAULT_VEHTYPE" speedFactor="0.95" vaporized=""/>
    <tripinfo id="46" depart="251.00" departLane="right1D1_0" departPos="5.10" departSpeed="0.00" departDelay="0.00" arrival="420.00" arrivalLane="D0bottom3_0" arrivalPos="286.40" arrivalSpeed="12.57" duration="169.00" routeLength="895.01" waitingTime="83.00" waitingCount="2" stopTime="0.00" timeLoss="101.34" rerouteNo="0" devices="tripinfo_46" vType="DEFAULT_VEHTYPE" speedFactor="0.96" vaporized=""/>
    <tripinfo id="54" depart="298.00" departLane="right0D0_0" departPos="5.10" departSpeed="0.00" departDelay="0.00" arrival="421.00" arrivalLane="C0bottom2_0" arrivalPos="286.40" arrivalSpeed="11.59" duration="123.00" routeLength="897.72" waitingTime="35.00" waitingCount="2" stopTime="0.00" timeLoss="51.60" rerouteNo="0" devices="tripinfo_54" vType="DEFAULT_VEHTYPE" speedFactor="0.91" vaporized=""/>
    <tripinfo id="51" depart="277.00" departLane="left2A2_0" departPos="5.10" departSpeed="0.00" departDelay="0.00" arrival="426.00" arrivalLane="D2right2_0" arrivalPos="286.40" arrivalSpeed="16.08" duration="149.00" routeLength="1495.58" waitingTime="32.00" waitingCount="3" stopTime="0.00" timeLoss="59.58" rerouteNo="0" devices="tripinfo_51" vType="DEFAULT_VEHTYPE" speedFactor="1.21" vaporized=""/>
    <tripinfo id="44" depart="242.00" departLane="left1A1_0" departPos="5.10" departSpeed="0.00" departDelay="0.00" arrival="428.00" arrivalLane="D0bottom3_0" arrivalPos="286.40" arrivalSpeed="13.52" duration="186.00" routeLength="1780.11" waitingTime="45.00" waitingCount="2" stopTime="0.00" timeLoss="64.03" rerouteNo="0" devices="tripinfo_44" vType="DEFAULT_VEHTYPE" speedFactor="1.06" vaporized=""/>
    <tripinfo id="66" depart="345.00" departLane="bottom0A0_0" departPos="5.10" departSpeed="0.00" departDelay="0.00" arrival="435.00" arrivalLane="B0bottom1_0" arrivalPos="286.40" arrivalSpeed="12.04" duration="90.00" routeLength="858.56" waitingTime="2.00" waitingCount="2" stopTime="0.00" timeLoss="18.87" rerouteNo="0" devices="tripinfo_66" vType="DEFAULT_VEHTYPE" speedFactor="0.90" vaporized=""/>
    <tripinfo id="68" depart="351.00" departLane="bottom1B0_0" departPos="5.10" departSpeed="0.00" departDelay="0.00" arrival="444.00" arrivalLane="A0left0_0" arrivalPos="286.40" arrivalSpeed="11.34" duration="93.00" routeLength="895.01" waitingTime="1.00" waitingCount="1" stopTime="0.00" timeLoss="13.90" rerouteNo="0" devices="tripinfo_68" vType="DEFAULT_VEHTYPE" speedFactor="0.83" vaporized=""/>
    <tripinfo id="72" depart="366.00" departLane="left2A2_0" departPos="5.10" departSpeed="0.00" departDelay="0.00" arrival="446.00" arrivalLane="A1left1_0" arrivalPos="286.40" arrivalSpeed="13.18" duration="80.00" routeLength="858.56" waitingTime="1.00" waitingCount="1" stopTime="0.00" timeLoss="15.91" rerouteNo="0" devices="tripinfo_72" vType="DEFAULT_VEHTYPE" speedFactor="0.99" vaporized=""/>
    <tripinfo id="73" depart="369.00" departLane="top2C3_0" departPos="5.10" departSpeed="0.00" departDelay="0.00" arrival="457.00" arrivalLane="B3top1_0" arrivalPos="286.40" arrivalSpeed="11.63" duration="88.00" routeLength="858.56" waitingTime="1.00" waitingCount="1" stopTime="0.00" timeLoss="14.10" rerouteNo="0" devices="tripinfo_73" vType="DEFAULT_VEHTYPE" speedFactor="0.86" vaporized=""/>
    <tripinfo id="57" depart="306.00" departLane="bottom1B0_0" departPos="5.10" departSpeed="0.00" departDelay="0.00" arrival="458.00" arrivalLane="D1right1_0" arrivalPos="286.40" arrivalSpeed="13.90" duration="152.00" routeLength="1479.94" waitingTime="22.00" waitingCount="2" stopTime="0.00" timeLoss="48.81" rerouteNo="0" devices="tripinfo_57" vType="DEFAULT_VEHTYPE" speedFactor="1.04" vaporized=""/>
    <tripinfo id="26" depart="138.00" departLane="left1A1_0" departPos="5.10" departSpeed="0.00" departDelay="0.00" arrival="462.00" arrivalLane="D3top3_0" arrivalPos="286.40" arrivalSpeed="12.03" duration="324.00" routeLength="2095.69" waitingTime="114.00" waitingCount="6" stopTime="0.00" timeLoss="153.79" rerouteNo="0" devices="tripinfo_26" vType="DEFAULT_VEHTYPE" speedFactor="0.89" vaporized=""/>
    <tripinfo id="49" depart="270.00" departLane="bottom0A0_0" departPos="5.10" departSpeed="0.00" departDelay="0.00" arrival="469.00" arrivalLane="B3top1_0" arrivalPos="286.40" arrivalSpeed="13.27" duration="199.00" routeLength="1782.72" waitingTime="37.00" waitingCount="4" stopTime="0.00" timeLoss="72.16" rerouteNo="0" devices="tripinfo_49" vType="DEFAULT_VEHTYPE" speedFactor="1.02" vaporized=""/>
    <tripinfo id="53" depart="290.00" departLane="top0A3_0" departPos="5.10" departSpeed="0.00" departDelay="1.00" arrival="470.00" arrivalLane="A3top0_0" arrivalPos="286.40" arrivalSpeed="12.76" duration="180.00" routeLength="1745.91" waitingTime="14.00" waitingCount="4" stopTime="0.00" timeLoss="48.91" rerouteNo="0" devices="tripinfo_53" vType="DEFAULT_VEHTYPE" speedFactor="0.98" vaporized=""/>
    <tripinfo id="61" depart="326.00" departLane="right2D2_0" departPos="5.10" departSpeed="0.00" departDelay="0.00" arrival="472.00" arrivalLane="A2left2_0" arrivalPos="286.40" arrivalSpeed="13.59" duration="146.00" routeLength="1495.58" waitingTime="20.00" waitingCount="2" stopTime="0.00" timeLoss="38.95" rerouteNo="0" devices="tripinfo_61" vType="DEFAULT_VEHTYPE" speedFactor="1.01" vaporized=""/>
    <tripinfo id="40" depart="220.00" departLane="right0D0_0" departPos="5.10" departSpeed="0.00" departDelay="0.00" arrival="473.00" arrivalLane="B3top1_0" arrivalPos="286.40" arrivalSpeed="11.53" duration="253.00" routeLength="2080.28" waitingTime="45.00" waitingCount="5" stopTime="0.00" timeLoss="88.89" rerouteNo="0" devices="tripinfo_40" vType="DEFAULT_VEHTYPE" speedFactor="0.92" vaporized=""/>
    <tripinfo id="59" depart="315.00" departLane="bottom2C0_0" departPos="5.10" departSpeed="0.00" departDelay="0.00" arrival="479.00" arrivalLane="A1left1_0" arrivalPos="286.40" arrivalSpeed="13.50" duration="164.00" routeLength="1495.35" waitingTime="34.00" waitingCount="3" stopTime="0.00" timeLoss="58.64" rerouteNo="0" devices="tripinfo_59" vType="DEFAULT_VEHTYPE" speedFactor="1.03" vaporized=""/>
    <tripinfo id="55" depart="304.00" departLane="top1B3_0" departPos="5.10" departSpeed="0.00" departDelay="0.00" arrival="481.00" arrivalLane="D2right2_0" arrivalPos="286.40" arrivalSpeed="11.46" duration="177.00" routeLength="1495.35" waitingTime="28.00" waitingCount="3" stopTime="0.00" timeLoss="58.67" rerouteNo="0" devices="tripinfo_55" vType="DEFAULT_VEHTYPE" speedFactor="0.92" vaporized=""/>
    <tripinfo id="80" depart="405.00" departLane="right0D0_0" departPos="5.10" departSpeed="0.00" departDelay="0.00" arrival="481.00" arrivalLane="D1right1_0" arrivalPos="286.40" arrivalSpeed="14.69" duration="76.00" routeLength="858.56" waitingTime="2.00" waitingCount="2" stopTime="0.00" timeLoss="19.17" rerouteNo="0" devices="tripinfo_80" vType="DEFAULT_VEHTYPE" speedFactor="1.12" vaporized=""/>
    <tripinfo id="52" depart="287.00" departLane="top0A3_0" departPos="5.10" departSpeed="0.00" departDelay="0.00" arrival="485.00" arrivalLane="C0bottom2_0" arrivalPos="286.40" arrivalSpeed="17.28" duration="198.00" routeLength="2080.05" waitingTime="40.00" waitingCount="4" stopTime="0.00" timeLoss="79.43" rerouteNo="0" devices="tripinfo_52" vType="DEFAULT_VEHTYPE" speedFactor="1.28" vaporized=""/>
    <tripinfo id="95" depart="440.00" departLane="right3D3_0" departPos="5.10" departSpeed="0.00" departDelay="0.00" arrival="489.00" arrivalLane="D3top3_0" arrivalPos="286.40" arrivalSpeed="13.55" duration="49.00" routeLength="576.73" waitingTime="0.00" waitingCount="0" stopTime="0.00" timeLoss="6.82" rerouteNo="0" devices="tripinfo_95" vType="DEFAULT_VEHTYPE" speedFactor="1.01" vaporized=""/>
    <tripinfo id="76" depart="382.00" departLane="bottom0A0_0" departPos="5.10" departSpeed="0.00" departDelay="0.00" arrival="494.00" arrivalLane="D0bottom3_0" arrivalPos="286.40" arrivalSpeed="15.98" duration="112.00" routeLength="1461.60" waitingTime="7.00" waitingCount="1" stopTime="0.00" timeLoss="22.56" rerouteNo="0" devices="tripinfo_76" vType="DEFAULT_VEHTYPE" speedFactor="1.19" vaporized=""/>
    <tripinfo id="36" depart="204.00" departLane="bottom3D0_0" departPos="5.10" departSpeed="0.00" departDelay="0.00" arrival="499.00" arrivalLane="A3top0_0" arrivalPos="286.40" arrivalSpeed="9.81" duration="295.00" routeLength="2380.22" waitingTime="42.00" waitingCount="4" stopTime="0.00" timeLoss="77.38" rerouteNo="0" devices="tripinfo_36" vType="DEFAULT_VEHTYPE" speedFactor="0.80" vaporized=""/>
    <tripinfo id="38" depart="209.00" departLane="right0D0_0" departPos="5.10" departSpeed="0.00" departDelay="0.00" arrival="502.00" arrivalLane="A3left3_0" arrivalPos="286.40" arrivalSpeed="12.62" duration="293.00" routeLength="2382.93" waitingTime="63.00" waitingCount="6" stopTime="0.00" timeLoss="106.55" rerouteNo="0" devices="tripinfo_38" vType="DEFAULT_VEHTYPE" speedFactor="0.93" vaporized=""/>
    <tripinfo id="88" depart="430.00" departLane="bottom0A0_0" departPos="5.10" departSpeed="0.00" departDelay="0.00" arrival="504.00" arrivalLane="B0bottom1_0" arrivalPos="286.40" arrivalSpeed="12.54" duration="74.00" routeLength="858.56" waitingTime="0.00" waitingCount="0" stopTime="0.00" timeLoss="9.60" rerouteNo="0" devices="tripinfo_88" vType="DEFAULT_VEHTYPE" speedFactor="0.98" vaporized=""/>
    <tripinfo id="70" depart="359.00" departLane="right0D0_0" departPos="5.10" departSpeed="0.00" departDelay="0.00" arrival="507.00" arrivalLane="B0bottom1_0" arrivalPos="286.40" arrivalSpeed="14.84" duration="148.00" routeLength="1197.89" waitingTime="45.00" waitingCount="3" stopTime="0.00" timeLoss="71.89" rerouteNo="0" devices="tripinfo_70" vType="DEFAULT_VEHTYPE" speedFactor="1.14" vaporized=""/>
    <tripinfo id="67" depart="345.00" departLane="bottom1B0_0" departPos="5.10" departSpeed="0.00" departDelay="0.00" arrival="510.00" arrivalLane="D1right1_1" arrivalPos="286.40" arrivalSpeed="14.10" duration="165.00" routeLength="1479.94" waitingTime="28.00" waitingCount="3" stopTime="0.00" timeLoss="61.59" rerouteNo="0" devices="tripinfo_67" vType="DEFAULT_VEHTYPE" speedFactor="1.04" vaporized=""/>
    <tripinfo id="48" depart="268.00" departLane="left0A0_0" departPos="5.10" departSpeed="0.00" departDelay="0.00" arrival="513.00" arrivalLane="D1right1_0" arrivalPos="286.40" arrivalSpeed="11.04" duration="245.00" routeLength="1782.59" waitingTime="58.00" waitingCount="4" stopTime="0.00" timeLoss="88.78" rerouteNo="0" devices="tripinfo_48" vType="DEFAULT_VEHTYPE" speedFactor="0.83" vaporized=""/>
    <tripinfo id="58" depart="314.00" departLane="top0A3_0" departPos="5.10" departSpeed="0.00" departDelay="0.00" arrival="513.00" arrivalLane="A0bottom0_0" arrivalPos="286.40" arrivalSpeed="11.46" duration="199.00" routeLength="1495.58" waitingTime="48.00" waitingCount="3" stopTime="0.00" timeLoss="73.60" rerouteNo="0" devices="tripinfo_58" vType="DEFAULT_VEHTYPE" speedFactor="0.86" vaporized=""/>
    <tripinfo id="69" depart="351.00" departLane="left1A1_0" departPos="5.10" departSpeed="0.00" departDelay="0.00" arrival="518.00" arrivalLane="D0bottom3_0" arrivalPos="286.40" arrivalSpeed="15.32" duration="167.00" routeLength="1780.11" waitingTime="17.00" waitingCount="4" stopTime="0.00" timeLoss="52.45" rerouteNo="0" devices="tripinfo_69" vType="DEFAULT_VEHTYPE" speedFactor="1.13" vaporized=""/>
    <tripinfo id="37" depart="207.00" departLane="top3D3_0" departPos="5.10" departSpeed="0.00" departDelay="0.00" arrival="521.00" arrivalLane="A0left0_0" arrivalPos="286.40" arrivalSpeed="12.18" duration="314.00" routeLength="2380.45" waitingTime="100.00" waitingCount="4" stopTime="0.00" timeLoss="134.75" rerouteNo="0" devices="tripinfo_37" vType="DEFAULT_VEHTYPE" speedFactor="0.96" vaporized=""/>