<?xml version="1.0" encoding="UTF-8"?>

<!-- generated on 12/19/21 11:14:35 by Eclipse SUMO sumo Version 1.7.0
<configuration xmlns:xsi="http://www.w3.org/2001/XMLSchema-instance" xsi:noNamespaceSchemaLocation="http://sumo.dlr.de/xsd/sumoConfiguration.xsd">

    <input>
        <net-file value="C:\Users\longs\Desktop\RESCO-main\environments\grid4x4\grid4x4.net.xml"/>
        <route-files value="C:\Users\longs\Desktop\RESCO-main\environments\grid4x4\grid4x4_27.rou.xml"/>
    </input>

    <output>
        <tripinfo-output value="C:\Users\longs\Desktop\RESCO-main\logs\IDQN-tr1-grid4x4-0-drqlong-delaydiff_pressure01\tripinfo_27.xml"/>
        <tripinfo-output.write-unfinished value="true"/>
    </output>

    <processing>
        <time-to-teleport value="-1"/>
    </processing>

    <report>
        <no-warnings value="true"/>
        <no-step-log value="true"/>
    </report>

    <traci_server>
        <remote-port value="65414"/>
    </traci_server>

    <random_number>
        <random value="true"/>
    </random_number>

</configuration>
-->

<tripinfos xmlns:xsi="http://www.w3.org/2001/XMLSchema-instance" xsi:noNamespaceSchemaLocation="http://sumo.dlr.de/xsd/tripinfo_file.xsd">
    <tripinfo id="4" depart="32.00" departLane="bottom0A0_0" departPos="5.10" departSpeed="0.00" departDelay="0.00" arrival="108.00" arrivalLane="A1left1_0" arrivalPos="286.40" arrivalSpeed="12.60" duration="76.00" routeLength="897.72" waitingTime="0.00" waitingCount="0" stopTime="0.00" timeLoss="5.86" rerouteNo="0" devices="tripinfo_4" vType="DEFAULT_VEHTYPE" speedFactor="0.94" vaporized=""/>
    <tripinfo id="3" depart="26.00" departLane="left2A2_0" departPos="5.10" departSpeed="0.00" departDelay="0.00" arrival="146.00" arrivalLane="A3top0_0" arrivalPos="286.40" arrivalSpeed="15.14" duration="120.00" routeLength="895.01" waitingTime="44.00" waitingCount="2" stopTime="0.00" timeLoss="62.04" rerouteNo="0" devices="tripinfo_3" vType="DEFAULT_VEHTYPE" speedFactor="1.12" vaporized=""/>
    <tripinfo id="0" depart="1.00" departLane="right0D0_0" departPos="5.10" departSpeed="0.00" departDelay="0.00" arrival="147.00" arrivalLane="D3right3_0" arrivalPos="286.40" arrivalSpeed="11.52" duration="146.00" routeLength="1461.60" waitingTime="3.00" waitingCount="3" stopTime="0.00" timeLoss="25.99" rerouteNo="0" devices="tripinfo_0" vType="DEFAULT_VEHTYPE" speedFactor="0.89" vaporized=""/>
    <tripinfo id="8" depart="50.00" departLane="bottom1B0_0" departPos="5.10" departSpeed="0.00" departDelay="0.00" arrival="148.00" arrivalLane="A0left0_0" arrivalPos="286.40" arrivalSpeed="11.70" duration="98.00" routeLength="895.01" waitingTime="13.00" waitingCount="1" stopTime="0.00" timeLoss="23.32" rerouteNo="0" devices="tripinfo_8" vType="DEFAULT_VEHTYPE" speedFactor="0.87" vaporized=""/>
    <tripinfo id="13" depart="79.00" departLane="right1D1_0" departPos="5.10" departSpeed="0.00" departDelay="0.00" arrival="154.00" arrivalLane="D2right2_0" arrivalPos="286.40" arrivalSpeed="14.83" duration="75.00" routeLength="858.56" waitingTime="2.00" waitingCount="2" stopTime="0.00" timeLoss="18.45" rerouteNo="0" devices="tripinfo_13" vType="DEFAULT_VEHTYPE" speedFactor="1.13" vaporized=""/>
    <tripinfo id="6" depart="43.00" departLane="bottom2C0_0" departPos="5.10" departSpeed="0.00" departDelay="0.00" arrival="177.00" arrivalLane="B0bottom1_0" arrivalPos="286.40" arrivalSpeed="15.06" duration="134.00" routeLength="894.86" waitingTime="60.00" waitingCount="2" stopTime="0.00" timeLoss="75.08" rerouteNo="0" devices="tripinfo_6" vType="DEFAULT_VEHTYPE" speedFactor="1.12" vaporized=""/>
    <tripinfo id="2" depart="23.00" departLane="right0D0_0" departPos="5.10" departSpeed="0.00" departDelay="0.00" arrival="178.00" arrivalLane="D3top3_0" arrivalPos="286.40" arrivalSpeed="14.37" duration="155.00" routeLength="1479.94" waitingTime="32.00" waitingCount="3" stopTime="0.00" timeLoss="55.22" rerouteNo="0" devices="tripinfo_2" vType="DEFAULT_VEHTYPE" speedFactor="1.08" vaporized=""/>
    <tripinfo id="11" depart="70.00" departLane="right3D3_0" departPos="5.10" departSpeed="0.00" departDelay="0.00" arrival="179.00" arrivalLane="D1right1_0" arrivalPos="286.40" arrivalSpeed="12.98" duration="109.00" routeLength="1197.66" waitingTime="10.00" waitingCount="1" stopTime="0.00" timeLoss="21.95" rerouteNo="0" devices="tripinfo_11" vType="DEFAULT_VEHTYPE" speedFactor="1.00" vaporized=""/>
    <tripinfo id="15" depart="86.00" departLane="left1A1_0" departPos="5.10" departSpeed="0.00" departDelay="0.00" arrival="202.00" arrivalLane="A3left3_0" arrivalPos="286.40" arrivalSpeed="11.50" duration="116.00" routeLength="1197.66" waitingTime="5.00" waitingCount="1" stopTime="0.00" timeLoss="17.33" rerouteNo="0" devices="tripinfo_15" vType="DEFAULT_VEHTYPE" speedFactor="0.89" vaporized=""/>
    <tripinfo id="19" depart="108.00" departLane="left1A1_0" departPos="5.10" departSpeed="0.00" departDelay="0.00" arrival="229.00" arrivalLane="A2left2_0" arrivalPos="286.40" arrivalSpeed="13.68" duration="121.00" routeLength="894.86" waitingTime="41.00" waitingCount="2" stopTime="0.00" timeLoss="57.86" rerouteNo="0" devices="tripinfo_19" vType="DEFAULT_VEHTYPE" speedFactor="1.05" vaporized=""/>
    <tripinfo id="1" depart="3.00" departLane="bottom1B0_0" departPos="5.10" departSpeed="0.00" departDelay="0.00" arrival="230.00" arrivalLane="A3left3_0" arrivalPos="286.40" arrivalSpeed="12.43" duration="227.00" routeLength="1795.52" waitingTime="59.00" waitingCount="5" stopTime="0.00" timeLoss="94.97" rerouteNo="0" devices="tripinfo_1" vType="DEFAULT_VEHTYPE" speedFactor="0.99" vaporized=""/>
    <tripinfo id="10" depart="56.00" departLane="bottom0A0_0" departPos="5.10" departSpeed="0.00" departDelay="0.00" arrival="234.00" arrivalLane="D0right0_0" arrivalPos="286.40" arrivalSpeed="10.54" duration="178.00" routeLength="1479.94" waitingTime="25.00" waitingCount="3" stopTime="0.00" timeLoss="45.53" rerouteNo="0" devices="tripinfo_10" vType="DEFAULT_VEHTYPE" speedFactor="0.81" vaporized=""/>
    <tripinfo id="38" depart="181.00" departLane="left3A3_0" departPos="5.10" departSpeed="0.00" departDelay="0.00" arrival="239.00" arrivalLane="A3top0_0" arrivalPos="286.40" arrivalSpeed="13.95" duration="58.00" routeLength="597.55" waitingTime="5.00" waitingCount="1" stopTime="0.00" timeLoss="14.43" rerouteNo="0" devices="tripinfo_38" vType="DEFAULT_VEHTYPE" speedFactor="1.01" vaporized=""/>
    <tripinfo id="29" depart="155.00" departLane="top2C3_0" departPos="5.10" departSpeed="0.00" departDelay="0.00" arrival="252.00" arrivalLane="D3right3_0" arrivalPos="286.40" arrivalSpeed="11.52" duration="97.00" routeLength="895.01" waitingTime="10.00" waitingCount="1" stopTime="0.00" timeLoss="21.95" rerouteNo="0" devices="tripinfo_29" vType="DEFAULT_VEHTYPE" speedFactor="0.87" vaporized=""/>
    <tripinfo id="16" depart="93.00" departLane="top0A3_0" departPos="5.10" departSpeed="0.00" departDelay="0.00" arrival="281.00" arrivalLane="A0bottom0_0" arrivalPos="286.40" arrivalSpeed="11.79" duration="188.00" routeLength="1495.58" waitingTime="49.00" waitingCount="3" stopTime="0.00" timeLoss="70.70" rerouteNo="0" devices="tripinfo_16" vType="DEFAULT_VEHTYPE" speedFactor="0.92" vaporized=""/>
    <tripinfo id="12" depart="71.00" departLane="left0A0_0" departPos="5.10" departSpeed="0.00" departDelay="0.00" arrival="285.00" arrivalLane="A3top0_0" arrivalPos="286.40" arrivalSpeed="9.98" duration="214.00" routeLength="1495.35" waitingTime="56.00" waitingCount="2" stopTime="0.00" timeLoss="78.78" rerouteNo="0" devices="tripinfo_12" vType="DEFAULT_VEHTYPE" speedFactor="0.80" vaporized=""/>
    <tripinfo id="35" depart="168.00" departLane="left0A0_0" departPos="5.10" departSpeed="0.00" departDelay="0.00" arrival="285.00" arrivalLane="A1left1_0" arrivalPos="286.40" arrivalSpeed="17.08" duration="117.00" routeLength="894.86" waitingTime="47.00" waitingCount="2" stopTime="0.00" timeLoss="64.58" rerouteNo="0" devices="tripinfo_35" vType="DEFAULT_VEHTYPE" speedFactor="1.25" vaporized=""/>
    <tripinfo id="22" depart="112.00" departLane="right2D2_0" departPos="5.10" departSpeed="0.00" departDelay="0.00" arrival="288.00" arrivalLane="B0bottom1_0" arrivalPos="286.40" arrivalSpeed="14.22" duration="176.00" routeLength="1795.52" waitingTime="28.00" waitingCount="3" stopTime="0.00" timeLoss="52.94" rerouteNo="0" devices="tripinfo_22" vType="DEFAULT_VEHTYPE" speedFactor="1.05" vaporized=""/>
    <tripinfo id="33" depart="166.00" departLane="right2D2_0" departPos="5.10" departSpeed="0.00" departDelay="0.00" arrival="292.00" arrivalLane="D0bottom3_0" arrivalPos="286.40" arrivalSpeed="13.47" duration="126.00" routeLength="1195.18" waitingTime="30.00" waitingCount="1" stopTime="0.00" timeLoss="41.91" rerouteNo="0" devices="tripinfo_33" vType="DEFAULT_VEHTYPE" speedFactor="1.03" vaporized=""/>
    <tripinfo id="18" depart="97.00" departLane="top0A3_0" departPos="5.10" departSpeed="0.00" departDelay="0.00" arrival="295.00" arrivalLane="A0left0_0" arrivalPos="286.40" arrivalSpeed="14.24" duration="198.00" routeLength="1477.24" waitingTime="62.00" waitingCount="4" stopTime="0.00" timeLoss="97.54" rerouteNo="0" devices="tripinfo_18" vType="DEFAULT_VEHTYPE" speedFactor="1.07" vaporized=""/>
    <tripinfo id="39" depart="182.00" departLane="bottom1B0_0" departPos="5.10" departSpeed="0.00" departDelay="0.00" arrival="309.00" arrivalLane="A0left0_0" arrivalPos="286.40" arrivalSpeed="12.76" duration="127.00" routeLength="895.01" waitingTime="46.00" waitingCount="2" stopTime="0.00" timeLoss="61.73" rerouteNo="0" devices="tripinfo_39" vType="DEFAULT_VEHTYPE" speedFactor="1.00" vaporized=""/>
    <tripinfo id="26" depart="133.00" departLane="top2C3_0" departPos="5.10" departSpeed="0.00" departDelay="0.00" arrival="310.00" arrivalLane="D1right1_0" arrivalPos="286.40" arrivalSpeed="12.14" duration="177.00" routeLength="1495.35" waitingTime="41.00" waitingCount="3" stopTime="0.00" timeLoss="63.64" rerouteNo="0" devices="tripinfo_26" vType="DEFAULT_VEHTYPE" speedFactor="0.96" vaporized=""/>
    <tripinfo id="28" depart="149.00" departLane="right0D0_0" departPos="5.10" departSpeed="0.00" departDelay="0.00" arrival="311.00" arrivalLane="D3top3_1" arrivalPos="286.40" arrivalSpeed="12.61" duration="162.00" routeLength="1479.94" waitingTime="24.00" waitingCount="3" stopTime="0.00" timeLoss="52.32" rerouteNo="0" devices="tripinfo_28" vType="DEFAULT_VEHTYPE" speedFactor="0.98" vaporized=""/>
    <tripinfo id="34" depart="167.00" departLane="right1D1_0" departPos="5.10" departSpeed="0.00" departDelay="0.00" arrival="316.00" arrivalLane="D3top3_0" arrivalPos="286.40" arrivalSpeed="10.20" duration="149.00" routeLength="1179.77" waitingTime="18.00" waitingCount="2" stopTime="0.00" timeLoss="36.35" rerouteNo="0" devices="tripinfo_34" vType="DEFAULT_VEHTYPE" speedFactor="0.77" vaporized=""/>
    <tripinfo id="14" depart="79.00" departLane="right0D0_0" departPos="5.10" departSpeed="0.00" departDelay="0.00" arrival="321.00" arrivalLane="A1left1_0" arrivalPos="286.40" arrivalSpeed="12.24" duration="242.00" routeLength="1782.72" waitingTime="63.00" waitingCount="5" stopTime="0.00" timeLoss="96.04" rerouteNo="0" devices="tripinfo_14" vType="DEFAULT_VEHTYPE" speedFactor="0.89" vaporized=""/>
    <tripinfo id="17" depart="96.00" departLane="bottom3D0_0" departPos="5.10" departSpeed="0.00" departDelay="0.00" arrival="321.00" arrivalLane="B0bottom1_0" arrivalPos="286.40" arrivalSpeed="12.51" duration="225.00" routeLength="1197.66" waitingTime="111.00" waitingCount="3" stopTime="0.00" timeLoss="132.50" rerouteNo="0" devices="tripinfo_17" vType="DEFAULT_VEHTYPE" speedFactor="0.95" vaporized=""/>
    <tripinfo id="5" depart="37.00" departLane="top2C3_0" departPos="5.10" departSpeed="0.00" departDelay="0.00" arrival="332.00" arrivalLane="D0right0_0" arrivalPos="286.40" arrivalSpeed="12.09" duration="295.00" routeLength="1795.52" waitingTime="115.00" waitingCount="5" stopTime="0.00" timeLoss="148.77" rerouteNo="0" devices="tripinfo_5" vType="DEFAULT_VEHTYPE" speedFactor="0.89" vaporized=""/>
    <tripinfo id="50" depart="223.00" departLane="left1A1_0" departPos="5.10" departSpeed="0.00" departDelay="0.00" arrival="334.00" arrivalLane="A2left2_0" arrivalPos="286.40" arrivalSpeed="10.70" duration="111.00" routeLength="894.86" waitingTime="18.00" waitingCount="1" stopTime="0.00" timeLoss="32.68" rerouteNo="0" devices="tripinfo_50" vType="DEFAULT_VEHTYPE" speedFactor="0.84" vaporized=""/>
    <tripinfo id="24" depart="121.00" departLane="right0D0_0" departPos="5.10" departSpeed="0.00" departDelay="0.00" arrival="336.00" arrivalLane="A2left2_0" arrivalPos="286.40" arrivalSpeed="11.74" duration="215.00" routeLength="2082.76" waitingTime="13.00" waitingCount="2" stopTime="0.00" timeLoss="38.84" rerouteNo="0" devices="tripinfo_24" vType="DEFAULT_VEHTYPE" speedFactor="0.86" vaporized=""/>
    <tripinfo id="31" depart="160.00" departLane="top1B3_0" departPos="5.10" departSpeed="0.00" departDelay="0.00" arrival="347.00" arrivalLane="B0bottom1_0" arrivalPos="286.40" arrivalSpeed="15.13" duration="187.00" routeLength="1495.58" waitingTime="67.00" waitingCount="3" stopTime="0.00" timeLoss="91.50" rerouteNo="0" devices="tripinfo_31" vType="DEFAULT_VEHTYPE" speedFactor="1.13" vaporized=""/>
    <tripinfo id="55" depart="254.00" departLane="left1A1_0" departPos="5.10" departSpeed="0.00" departDelay="0.00" arrival="349.00" arrivalLane="A0bottom0_0" arrivalPos="286.40" arrivalSpeed="12.87" duration="95.00" routeLength="879.60" waitingTime="15.00" waitingCount="2" stopTime="0.00" timeLoss="30.20" rerouteNo="0" devices="tripinfo_55" vType="DEFAULT_VEHTYPE" speedFactor="0.99" vaporized=""/>
    <tripinfo id="53" depart="242.00" departLane="top0A3_0" departPos="5.10" departSpeed="0.00" departDelay="0.00" arrival="355.00" arrivalLane="A2left2_0" arrivalPos="286.40" arrivalSpeed="14.15" duration="113.00" routeLength="876.90" waitingTime="36.00" waitingCount="2" stopTime="0.00" timeLoss="53.91" rerouteNo="0" devices="tripinfo_53" vType="DEFAULT_VEHTYPE" speedFactor="1.09" vaporized=""/>
    <tripinfo id="57" depart="268.00" departLane="left0A0_0" departPos="5.10" departSpeed="0.00" departDelay="0.00" arrival="355.00" arrivalLane="B0bottom1_0" arrivalPos="286.40" arrivalSpeed="11.89" duration="87.00" routeLength="876.90" waitingTime="5.00" waitingCount="1" stopTime="0.00" timeLoss="15.82" rerouteNo="0" devices="tripinfo_57" vType="DEFAULT_VEHTYPE" speedFactor="0.90" vaporized=""/>
    <tripinfo id="36" depart="171.00" departLane="top3D3_0" departPos="5.10" departSpeed="0.00" departDelay="0.00" arrival="358.00" arrivalLane="C0bottom2_0" arrivalPos="286.40" arrivalSpeed="13.22" duration="187.00" routeLength="1782.72" waitingTime="35.00" waitingCount="3" stopTime="0.00" timeLoss="61.54" rerouteNo="0" devices="tripinfo_36" vType="DEFAULT_VEHTYPE" speedFactor="1.03" vaporized=""/>
    <tripinfo id="46" depart="198.00" departLane="bottom2C0_0" departPos="5.10" departSpeed="0.00" departDelay="0.00" arrival="358.00" arrivalLane="A0bottom0_0" arrivalPos="286.40" arrivalSpeed="14.61" duration="160.00" routeLength="1197.66" waitingTime="52.00" waitingCount="3" stopTime="0.00" timeLoss="80.07" rerouteNo="0" devices="tripinfo_46" vType="DEFAULT_VEHTYPE" speedFactor="1.10" vaporized=""/>
    <tripinfo id="42" depart="187.00" departLane="bottom1B0_0" departPos="5.10" departSpeed="0.00" departDelay="0.00" arrival="359.00" arrivalLane="B3top1_1" arrivalPos="286.40" arrivalSpeed="14.99" duration="172.00" routeLength="1495.58" waitingTime="39.00" waitingCount="3" stopTime="0.00" timeLoss="72.27" rerouteNo="0" devices="tripinfo_42" vType="DEFAULT_VEHTYPE" speedFactor="1.08" vaporized=""/>
    <tripinfo id="47" depart="202.00" departLane="left2A2_0" departPos="5.10" departSpeed="0.00" departDelay="0.00" arrival="359.00" arrivalLane="C0bottom2_1" arrivalPos="286.40" arrivalSpeed="14.24" duration="157.00" routeLength="1780.11" waitingTime="17.00" waitingCount="2" stopTime="0.00" timeLoss="39.76" rerouteNo="0" devices="tripinfo_47" vType="DEFAULT_VEHTYPE" speedFactor="1.10" vaporized=""/>
    <tripinfo id="27" depart="141.00" departLane="bottom0A0_0" departPos="5.10" departSpeed="0.00" departDelay="0.00" arrival="361.00" arrivalLane="B3top1_0" arrivalPos="286.40" arrivalSpeed="11.71" duration="220.00" routeLength="1782.72" waitingTime="48.00" waitingCount="4" stopTime="0.00" timeLoss="79.56" rerouteNo="0" devices="tripinfo_27" vType="DEFAULT_VEHTYPE" speedFactor="0.93" vaporized=""/>
    <tripinfo id="51" depart="230.00" departLane="left2A2_0" departPos="5.10" departSpeed="0.00" departDelay="0.00" arrival="361.00" arrivalLane="A3left3_0" arrivalPos="286.40" arrivalSpeed="11.78" duration="131.00" routeLength="894.86" waitingTime="46.00" waitingCount="2" stopTime="0.00" timeLoss="59.19" rerouteNo="0" devices="tripinfo_51" vType="DEFAULT_VEHTYPE" speedFactor="0.91" vaporized=""/>
    <tripinfo id="45" depart="195.00" departLane="right3D3_0" departPos="5.10" departSpeed="0.00" departDelay="0.00" arrival="364.00" arrivalLane="A3top0_0" arrivalPos="286.40" arrivalSpeed="14.56" duration="169.00" routeLength="1477.24" waitingTime="41.00" waitingCount="4" stopTime="0.00" timeLoss="70.76" rerouteNo="0" devices="tripinfo_45" vType="DEFAULT_VEHTYPE" speedFactor="1.09" vaporized=""/>
    <tripinfo id="40" depart="184.00" departLane="bottom2C0_0" departPos="5.10" departSpeed="0.00" departDelay="0.00" arrival="365.00" arrivalLane="B3top1_0" arrivalPos="286.40" arrivalSpeed="12.50" duration="181.00" routeLength="1782.59" waitingTime="19.00" waitingCount="1" stopTime="0.00" timeLoss="40.16" rerouteNo="0" devices="tripinfo_40" vType="DEFAULT_VEHTYPE" speedFactor="0.92" vaporized=""/>
    <tripinfo id="49" depart="222.00" departLane="top3D3_0" departPos="5.10" departSpeed="0.00" departDelay="0.00" arrival="371.00" arrivalLane="A3top0_0" arrivalPos="286.40" arrivalSpeed="14.87" duration="149.00" routeLength="1461.60" waitingTime="24.00" waitingCount="2" stopTime="0.00" timeLoss="50.09" rerouteNo="0" devices="tripinfo_49" vType="DEFAULT_VEHTYPE" speedFactor="1.08" vaporized=""/>
    <tripinfo id="20" depart="110.00" departLane="bottom2C0_0" departPos="5.10" departSpeed="0.00" departDelay="0.00" arrival="379.00" arrivalLane="D3right3_0" arrivalPos="286.40" arrivalSpeed="12.92" duration="269.00" routeLength="1780.11" waitingTime="113.00" waitingCount="3" stopTime="0.00" timeLoss="139.04" rerouteNo="0" devices="tripinfo_20" vType="DEFAULT_VEHTYPE" speedFactor="0.99" vaporized=""/>
    <tripinfo id="68" depart="309.00" departLane="right0D0_0" departPos="5.10" departSpeed="0.00" departDelay="0.00" arrival="380.00" arrivalLane="D0bottom3_0" arrivalPos="286.40" arrivalSpeed="13.13" duration="71.00" routeLength="597.55" waitingTime="16.00" waitingCount="1" stopTime="0.00" timeLoss="25.49" rerouteNo="0" devices="tripinfo_68" vType="DEFAULT_VEHTYPE" speedFactor="0.96" vaporized=""/>
    <tripinfo id="54" depart="248.00" departLane="top2C3_0" departPos="5.10" departSpeed="0.00" departDelay="0.00" arrival="388.00" arrivalLane="C0bottom2_0" arrivalPos="286.40" arrivalSpeed="12.06" duration="140.00" routeLength="1495.58" waitingTime="11.00" waitingCount="1" stopTime="0.00" timeLoss="25.60" rerouteNo="0" devices="tripinfo_54" vType="DEFAULT_VEHTYPE" speedFactor="0.94" vaporized=""/>
    <tripinfo id="9" depart="54.00" departLane="right1D1_0" departPos="5.10" departSpeed="0.00" departDelay="0.00" arrival="398.00" arrivalLane="A0left0_0" arrivalPos="286.40" arrivalSpeed="13.82" duration="344.00" routeLength="1782.59" waitingTime="184.00" waitingCount="5" stopTime="0.00" timeLoss="220.45" rerouteNo="0" devices="tripinfo_9" vType="DEFAULT_VEHTYPE" speedFactor="1.05" vaporized=""/>
    <tripinfo id="32" depart="161.00" departLane="right2D2_0" departPos="5.10" departSpeed="0.00" departDelay="0.00" arrival="400.00" arrivalLane="A3top0_0" arrivalPos="286.40" arrivalSpeed="12.42" duration="239.00" routeLength="1780.11" waitingTime="78.00" waitingCount="4" stopTime="0.00" timeLoss="107.73" rerouteNo="0" devices="tripinfo_32" vType="DEFAULT_VEHTYPE" speedFactor="0.98" vaporized=""/>
    <tripinfo id="25" depart="132.00" departLane="right1D1_0" departPos="5.10" departSpeed="0.00" departDelay="0.00" arrival="401.00" arrivalLane="A0left0_0" arrivalPos="286.40" arrivalSpeed="12.78" duration="269.00" routeLength="1782.59" waitingTime="100.00" waitingCount="5" stopTime="0.00" timeLoss="138.56" rerouteNo="0" devices="tripinfo_25" vType="DEFAULT_VEHTYPE" speedFactor="0.99" vaporized=""/>
    <tripinfo id="41" depart="186.00" departLane="right0D0_0" departPos="5.10" departSpeed="0.00" departDelay="0.00" arrival="401.00" arrivalLane="A3top0_1" arrivalPos="286.40" arrivalSpeed="15.47" duration="215.00" routeLength="2380.45" waitingTime="37.00" waitingCount="3" stopTime="0.00" timeLoss="66.92" rerouteNo="0" devices="tripinfo_41" vType="DEFAULT_VEHTYPE" speedFactor="1.16" vaporized=""/>
    <tripinfo id="7" depart="49.00" departLane="bottom0A0_0" departPos="5.10" departSpeed="0.00" departDelay="0.00" arrival="404.00" arrivalLane="D2right2_0" arrivalPos="286.40" arrivalSpeed="10.47" duration="355.00" routeLength="2080.28" waitingTime="131.00" waitingCount="5" stopTime="0.00" timeLoss="168.99" rerouteNo="0" devices="tripinfo_7" vType="DEFAULT_VEHTYPE" speedFactor="0.81" vaporized=""/>
    <tripinfo id="37" depart="179.00" departLane="top3D3_0" departPos="5.10" departSpeed="0.00" departDelay="0.00" arrival="409.00" arrivalLane="A3left3_0" arrivalPos="286.40" arrivalSpeed="14.22" duration="230.00" routeLength="1479.94" waitingTime="102.00" waitingCount="3" stopTime="0.00" timeLoss="126.82" rerouteNo="0" devices="tripinfo_37" vType="DEFAULT_VEHTYPE" speedFactor="1.05" vaporized=""/>
    <tripinfo id="23" depart="112.00" departLane="bottom3D0_0" departPos="5.10" departSpeed="0.00" departDelay="0.00" arrival="411.00" arrivalLane="A3left3_0" arrivalPos="286.40" arrivalSpeed="14.16" duration="299.00" routeLength="2395.86" waitingTime="99.00" waitingCount="4" stopTime="0.00" timeLoss="133.24" rerouteNo="0" devices="tripinfo_23" vType="DEFAULT_VEHTYPE" speedFactor="1.05" vaporized=""/>
    <tripinfo id="70" depart="310.00" departLane="top2C3_0" departPos="5.10" departSpeed="0.00" departDelay="0.00" arrival="417.00" arrivalLane="D3right3_0" arrivalPos="286.40" arrivalSpeed="15.26" duration="107.00" routeLength="895.01" waitingTime="31.00" waitingCount="2" stopTime="0.00" timeLoss="48.63" rerouteNo="0" devices="tripinfo_70" vType="DEFAULT_VEHTYPE" speedFactor="1.11" vaporized=""/>
    <tripinfo id="64" depart="287.00" departLane="right0D0_0" departPos="5.10" departSpeed="0.00" departDelay="0.00" arrival="419.00" arrivalLane="B0bottom1_0" arrivalPos="286.40" arrivalSpeed="14.19" duration="132.00" routeLength="1197.89" waitingTime="29.00" waitingCount="2" stopTime="0.00" timeLoss="47.61" rerouteNo="0" devices="tripinfo_64" vType="DEFAULT_VEHTYPE" speedFactor="1.03" vaporized=""/>
    <tripinfo id="74" depart="333.00" departLane="bottom3D0_0" departPos="5.10" departSpeed="0.00" departDelay="0.00" arrival="419.00" arrivalLane="D1right1_0" arrivalPos="286.40" arrivalSpeed="14.10" duration="86.00" routeLength="876.90" waitingTime="4.00" waitingCount="2" stopTime="0.00" timeLoss="22.89" rerouteNo="0" devices="tripinfo_74" vType="DEFAULT_VEHTYPE" speedFactor="1.02" vaporized=""/>
    <tripinfo id="43" depart="190.00" departLane="bottom2C0_0" departPos="5.10" departSpeed="0.00" departDelay="0.00" arrival="420.00" arrivalLane="C0bottom2_0" arrivalPos="286.40" arrivalSpeed="13.22" duration="230.00" routeLength="1748.75" waitingTime="66.00" waitingCount="5" stopTime="0.00" timeLoss="98.91" rerouteNo="0" devices="tripinfo_43" vType="DEFAULT_VEHTYPE" speedFactor="0.98" vaporized=""/>
    <tripinfo id="63" depart="287.00" departLane="left1A1_0" departPos="5.10" departSpeed="0.00" departDelay="0.00" arrival="430.00" arrivalLane="A2left2_0" arrivalPos="286.40" arrivalSpeed="12.26" duration="143.00" routeLength="894.86" waitingTime="58.00" waitingCount="2" stopTime="0.00" timeLoss="74.48" rerouteNo="0" devices="tripinfo_63" vType="DEFAULT_VEHTYPE" speedFactor="0.96" vaporized=""/>
    <tripinfo id="77" depart="358.00" departLane="right3D3_0" departPos="5.10" departSpeed="0.00" departDelay="1.00" arrival="431.00" arrivalLane="C3top2_0" arrivalPos="286.40" arrivalSpeed="12.61" duration="73.00" routeLength="876.90" waitingTime="0.00" waitingCount="0" stopTime="0.00" timeLoss="7.45" rerouteNo="0" devices="tripinfo_77" vType="DEFAULT_VEHTYPE" speedFactor="0.98" vaporized=""/>
    <tripinfo id="44" depart="192.00" departLane="right2D2_0" departPos="5.10" departSpeed="0.00" departDelay="0.00" arrival="436.00" arrivalLane="A0left0_0" arrivalPos="286.40" arrivalSpeed="15.36" duration="244.00" routeLength="2080.05" waitingTime="75.00" waitingCount="5" stopTime="0.00" timeLoss="115.53" rerouteNo="0" devices="tripinfo_44" vType="DEFAULT_VEHTYPE" speedFactor="1.18" vaporized=""/>
    <tripinfo id="86" depart="389.00" departLane="top3D3_0" departPos="5.10" departSpeed="0.00" departDelay="0.00" arrival="437.00" arrivalLane="D3right3_0" arrivalPos="286.40" arrivalSpeed="14.55" duration="48.00" routeLength="597.55" waitingTime="0.00" waitingCount="0" stopTime="0.00" timeLoss="5.90" rerouteNo="0" devices="tripinfo_86" vType="DEFAULT_VEHTYPE" speedFactor="1.05" vaporized=""/>
    <tripinfo id="52" depart="230.00" departLane="top2C3_0" departPos="5.10" departSpeed="0.00" departDelay="0.00" arrival="440.00" arrivalLane="A1left1_0" arrivalPos="286.40" arrivalSpeed="12.32" duration="210.00" routeLength="1780.11" waitingTime="49.00" waitingCount="4" stopTime="0.00" timeLoss="76.17" rerouteNo="0" devices="tripinfo_52" vType="DEFAULT_VEHTYPE" speedFactor="0.96" vaporized=""/>
    <tripinfo id="48" depart="219.00" departLane="bottom2C0_0" departPos="5.10" departSpeed="0.00" departDelay="0.00" arrival="448.00" arrivalLane="A3top0_0" arrivalPos="286.40" arrivalSpeed="14.14" duration="229.00" routeLength="2080.05" waitingTime="52.00" waitingCount="5" stopTime="0.00" timeLoss="89.27" rerouteNo="0" devices="tripinfo_48" vType="DEFAULT_VEHTYPE" speedFactor="1.08" vaporized=""/>
    <tripinfo id="69" depart="310.00" departLane="left0A0_0" departPos="5.10" departSpeed="0.00" departDelay="0.00" arrival="449.00" arrivalLane="A3top0_1" arrivalPos="286.40" arrivalSpeed="14.78" duration="139.00" routeLength="1495.35" waitingTime="25.00" waitingCount="1" stopTime="0.00" timeLoss="42.93" rerouteNo="0" devices="tripinfo_69" vType="DEFAULT_VEHTYPE" speedFactor="1.13" vaporized=""/>
    <tripinfo id="65" depart="288.00" departLane="bottom1B0_0" departPos="5.10" departSpeed="0.00" departDelay="0.00" arrival="451.00" arrivalLane="B0bottom1_0" arrivalPos="286.40" arrivalSpeed="12.96" duration="163.00" routeLength="1748.75" waitingTime="10.00" waitingCount="3" stopTime="0.00" timeLoss="35.62" rerouteNo="0" devices="tripinfo_65" vType="DEFAULT_VEHTYPE" speedFactor="1.01" vaporized=""/>
    <tripinfo id="76" depart="355.00" departLane="right3D3_0" departPos="5.10" departSpeed="0.00" departDelay="0.00" arrival="455.00" arrivalLane="B3top1_0" arrivalPos="286.40" arrivalSpeed="13.23" duration="100.00" routeLength="1177.07" waitingTime="1.00" waitingCount="1" stopTime="0.00" timeLoss="12.05" rerouteNo="0" devices="tripinfo_76" vType="DEFAULT_VEHTYPE" speedFactor="0.97" vaporized=""/>
    <tripinfo id="67" depart="302.00" departLane="right1D1_0" departPos="5.10" departSpeed="0.00" departDelay="0.00" arrival="461.00" arrivalLane="B3top1_0" arrivalPos="286.40" arrivalSpeed="13.44" duration="159.00" routeLength="1780.11" waitingTime="10.00" waitingCount="2" stopTime="0.00" timeLoss="32.02" rerouteNo="0" devices="tripinfo_67" vType="DEFAULT_VEHTYPE" speedFactor="1.02" vaporized=""/>
    <tripinfo id="62" depart="284.00" departLane="right1D1_0" departPos="5.10" departSpeed="0.00" departDelay="0.00" arrival="463.00" arrivalLane="A0bottom0_0" arrivalPos="286.40" arrivalSpeed="12.74" duration="179.00" routeLength="1795.52" waitingTime="19.00" waitingCount="2" stopTime="0.00" timeLoss="43.51" rerouteNo="0" devices="tripinfo_62" vType="DEFAULT_VEHTYPE" speedFactor="0.96" vaporized=""/>
    <tripinfo id="82" depart="381.00" departLane="left3A3_0" departPos="5.10" departSpeed="0.00" departDelay="0.00" arrival="471.00" arrivalLane="A3top0_0" arrivalPos="286.40" arrivalSpeed="12.55" duration="90.00" routeLength="597.55" waitingTime="33.00" waitingCount="1" stopTime="0.00" timeLoss="43.34" rerouteNo="0" devices="tripinfo_82" vType="DEFAULT_VEHTYPE" speedFactor="0.94" vaporized=""/>
    <tripinfo id="56" depart="256.00" departLane="right3D3_0" departPos="5.10" departSpeed="0.00" departDelay="0.00" arrival="486.00" arrivalLane="A0bottom0_0" arrivalPos="286.40" arrivalSpeed="16.14" duration="230.00" routeLength="2395.86" waitingTime="52.00" waitingCount="4" stopTime="0.00" timeLoss="88.22" rerouteNo="0" devices="tripinfo_56" vType="DEFAULT_VEHTYPE" speedFactor="1.22" vaporized=""/>
    <tripinfo id="79" depart="362.00" departLane="left1A1_0" departPos="5.10" departSpeed="0.00" departDelay="0.00" arrival="489.00" arrivalLane="A3top0_0" arrivalPos="286.40" arrivalSpeed="14.38" duration="127.00" routeLength="1195.18" waitingTime="19.00" waitingCount="3" stopTime="0.00" timeLoss="43.75" rerouteNo="0" devices="tripinfo_79" vType="DEFAULT_VEHTYPE" speedFactor="1.05" vaporized=""/>
    <tripinfo id="78" depart="360.00" departLane="top1B3_0" departPos="5.10" departSpeed="0.00" departDelay="0.00" arrival="490.00" arrivalLane="C3top2_0" arrivalPos="286.40" arrivalSpeed="13.13" duration="130.00" routeLength="894.86" waitingTime="48.00" waitingCount="2" stopTime="0.00" timeLoss="62.52" rerouteNo="0" devices="tripinfo_78" vType="DEFAULT_VEHTYPE" speedFactor="0.97" vaporized=""/>