<?xml version="1.0" encoding="UTF-8"?>

<!-- generated on 12/19/21 11:54:39 by Eclipse SUMO sumo Version 1.7.0
<configuration xmlns:xsi="http://www.w3.org/2001/XMLSchema-instance" xsi:noNamespaceSchemaLocation="http://sumo.dlr.de/xsd/sumoConfiguration.xsd">

    <input>
        <net-file value="C:\Users\longs\Desktop\RESCO-main\environments\grid4x4\grid4x4.net.xml"/>
        <route-files value="C:\Users\longs\Desktop\RESCO-main\environments\grid4x4\grid4x4_68.rou.xml"/>
    </input>

    <output>
        <tripinfo-output value="C:\Users\longs\Desktop\RESCO-main\logs\IDQN-tr1-grid4x4-0-drqlong-delaydiff_pressure01\tripinfo_68.xml"/>
        <tripinfo-output.write-unfinished value="true"/>
    </output>

    <processing>
        <time-to-teleport value="-1"/>
    </processing>

    <report>
        <no-warnings value="true"/>
        <no-step-log value="true"/>
    </report>

    <traci_server>
        <remote-port value="49249"/>
    </traci_server>

    <random_number>
        <random value="true"/>
    </random_number>

</configuration>
-->

<tripinfos xmlns:xsi="http://www.w3.org/2001/XMLSchema-instance" xsi:noNamespaceSchemaLocation="http://sumo.dlr.de/xsd/tripinfo_file.xsd">
    <tripinfo id="19" depart="84.00" departLane="bottom3D0_0" departPos="5.10" departSpeed="0.00" departDelay="0.00" arrival="138.00" arrivalLane="D0right0_0" arrivalPos="286.40" arrivalSpeed="12.42" duration="54.00" routeLength="576.73" waitingTime="1.00" waitingCount="1" stopTime="0.00" timeLoss="10.16" rerouteNo="0" devices="tripinfo_19" vType="DEFAULT_VEHTYPE" speedFactor="0.98" vaporized=""/>
    <tripinfo id="14" depart="66.00" departLane="bottom1B0_0" departPos="5.10" departSpeed="0.00" departDelay="0.00" arrival="149.00" arrivalLane="A0bottom0_0" arrivalPos="286.40" arrivalSpeed="14.11" duration="83.00" routeLength="894.86" waitingTime="7.00" waitingCount="1" stopTime="0.00" timeLoss="18.96" rerouteNo="0" devices="tripinfo_14" vType="DEFAULT_VEHTYPE" speedFactor="1.03" vaporized=""/>
    <tripinfo id="8" depart="45.00" departLane="bottom1B0_0" departPos="5.10" departSpeed="0.00" departDelay="0.00" arrival="150.00" arrivalLane="A0left0_0" arrivalPos="286.40" arrivalSpeed="13.00" duration="105.00" routeLength="895.01" waitingTime="20.00" waitingCount="2" stopTime="0.00" timeLoss="37.13" rerouteNo="0" devices="tripinfo_8" vType="DEFAULT_VEHTYPE" speedFactor="0.96" vaporized=""/>
    <tripinfo id="1" depart="4.00" departLane="left1A1_0" departPos="5.10" departSpeed="0.00" departDelay="0.00" arrival="157.00" arrivalLane="B3top1_0" arrivalPos="286.40" arrivalSpeed="14.15" duration="153.00" routeLength="1495.35" waitingTime="30.00" waitingCount="3" stopTime="0.00" timeLoss="54.29" rerouteNo="0" devices="tripinfo_1" vType="DEFAULT_VEHTYPE" speedFactor="1.10" vaporized=""/>
    <tripinfo id="2" depart="7.00" departLane="top1B3_0" departPos="5.10" departSpeed="0.00" departDelay="0.00" arrival="158.00" arrivalLane="B0bottom1_0" arrivalPos="286.40" arrivalSpeed="13.97" duration="151.00" routeLength="1495.58" waitingTime="25.00" waitingCount="3" stopTime="0.00" timeLoss="52.25" rerouteNo="0" devices="tripinfo_2" vType="DEFAULT_VEHTYPE" speedFactor="1.10" vaporized=""/>
    <tripinfo id="10" depart="50.00" departLane="top1B3_0" departPos="5.10" departSpeed="0.00" departDelay="0.00" arrival="170.00" arrivalLane="A2left2_0" arrivalPos="286.40" arrivalSpeed="13.41" duration="120.00" routeLength="1179.77" waitingTime="10.00" waitingCount="2" stopTime="0.00" timeLoss="30.90" rerouteNo="0" devices="tripinfo_10" vType="DEFAULT_VEHTYPE" speedFactor="0.97" vaporized=""/>
    <tripinfo id="3" depart="16.00" departLane="left1A1_0" departPos="5.10" departSpeed="0.00" departDelay="0.00" arrival="179.00" arrivalLane="C3top2_0" arrivalPos="286.40" arrivalSpeed="14.08" duration="163.00" routeLength="1795.52" waitingTime="17.00" waitingCount="2" stopTime="0.00" timeLoss="41.54" rerouteNo="0" devices="tripinfo_3" vType="DEFAULT_VEHTYPE" speedFactor="1.07" vaporized=""/>
    <tripinfo id="0" depart="3.00" departLane="bottom1B0_0" departPos="5.10" departSpeed="0.00" departDelay="0.00" arrival="183.00" arrivalLane="C3top2_0" arrivalPos="286.40" arrivalSpeed="13.72" duration="180.00" routeLength="1782.72" waitingTime="20.00" waitingCount="4" stopTime="0.00" timeLoss="53.12" rerouteNo="0" devices="tripinfo_0" vType="DEFAULT_VEHTYPE" speedFactor="1.03" vaporized=""/>
    <tripinfo id="4" depart="17.00" departLane="bottom1B0_0" departPos="5.10" departSpeed="0.00" departDelay="0.00" arrival="188.00" arrivalLane="D1right1_0" arrivalPos="286.40" arrivalSpeed="14.07" duration="171.00" routeLength="1479.94" waitingTime="38.00" waitingCount="4" stopTime="0.00" timeLoss="67.63" rerouteNo="0" devices="tripinfo_4" vType="DEFAULT_VEHTYPE" speedFactor="1.04" vaporized=""/>
    <tripinfo id="6" depart="28.00" departLane="top2C3_0" departPos="5.10" departSpeed="0.00" departDelay="0.00" arrival="192.00" arrivalLane="D1right1_0" arrivalPos="286.40" arrivalSpeed="12.99" duration="164.00" routeLength="1495.35" waitingTime="23.00" waitingCount="4" stopTime="0.00" timeLoss="52.50" rerouteNo="0" devices="tripinfo_6" vType="DEFAULT_VEHTYPE" speedFactor="0.98" vaporized=""/>
    <tripinfo id="15" depart="69.00" departLane="bottom1B0_0" departPos="5.10" departSpeed="0.00" departDelay="1.00" arrival="194.00" arrivalLane="A0left0_0" arrivalPos="286.40" arrivalSpeed="10.90" duration="125.00" routeLength="895.01" waitingTime="30.00" waitingCount="2" stopTime="0.00" timeLoss="46.12" rerouteNo="0" devices="tripinfo_15" vType="DEFAULT_VEHTYPE" speedFactor="0.83" vaporized=""/>
    <tripinfo id="21" depart="87.00" departLane="top2C3_0" departPos="5.10" departSpeed="0.00" departDelay="0.00" arrival="197.00" arrivalLane="D2right2_0" arrivalPos="286.40" arrivalSpeed="15.35" duration="110.00" routeLength="1195.18" waitingTime="13.00" waitingCount="2" stopTime="0.00" timeLoss="32.34" rerouteNo="0" devices="tripinfo_21" vType="DEFAULT_VEHTYPE" speedFactor="1.13" vaporized=""/>
    <tripinfo id="34" depart="155.00" departLane="bottom3D0_0" departPos="5.10" departSpeed="0.00" departDelay="0.00" arrival="203.00" arrivalLane="D0right0_0" arrivalPos="286.40" arrivalSpeed="16.15" duration="48.00" routeLength="576.73" waitingTime="1.00" waitingCount="1" stopTime="0.00" timeLoss="13.86" rerouteNo="0" devices="tripinfo_34" vType="DEFAULT_VEHTYPE" speedFactor="1.25" vaporized=""/>
    <tripinfo id="5" depart="27.00" departLane="right2D2_0" departPos="5.10" departSpeed="0.00" departDelay="0.00" arrival="210.00" arrivalLane="C0bottom2_0" arrivalPos="286.40" arrivalSpeed="12.31" duration="183.00" routeLength="1495.35" waitingTime="43.00" waitingCount="3" stopTime="0.00" timeLoss="67.50" rerouteNo="0" devices="tripinfo_5" vType="DEFAULT_VEHTYPE" speedFactor="0.94" vaporized=""/>
    <tripinfo id="7" depart="44.00" departLane="top1B3_0" departPos="5.10" departSpeed="0.00" departDelay="0.00" arrival="212.00" arrivalLane="B3top1_0" arrivalPos="286.40" arrivalSpeed="13.76" duration="168.00" routeLength="1748.75" waitingTime="14.00" waitingCount="3" stopTime="0.00" timeLoss="39.42" rerouteNo="0" devices="tripinfo_7" vType="DEFAULT_VEHTYPE" speedFactor="1.00" vaporized=""/>
    <tripinfo id="13" depart="64.00" departLane="right0D0_0" departPos="5.10" departSpeed="0.00" departDelay="0.00" arrival="214.00" arrivalLane="D3top3_0" arrivalPos="286.40" arrivalSpeed="12.03" duration="150.00" routeLength="1479.94" waitingTime="22.00" waitingCount="1" stopTime="0.00" timeLoss="36.63" rerouteNo="0" devices="tripinfo_13" vType="DEFAULT_VEHTYPE" speedFactor="0.95" vaporized=""/>
    <tripinfo id="26" depart="121.00" departLane="bottom2C0_0" departPos="5.10" departSpeed="0.00" departDelay="0.00" arrival="238.00" arrivalLane="A0left0_0" arrivalPos="286.40" arrivalSpeed="13.31" duration="117.00" routeLength="1195.18" waitingTime="16.00" waitingCount="2" stopTime="0.00" timeLoss="33.37" rerouteNo="0" devices="tripinfo_26" vType="DEFAULT_VEHTYPE" speedFactor="1.04" vaporized=""/>
    <tripinfo id="35" depart="156.00" departLane="right1D1_0" departPos="5.10" departSpeed="0.00" departDelay="0.00" arrival="238.00" arrivalLane="D0bottom3_0" arrivalPos="286.40" arrivalSpeed="14.71" duration="82.00" routeLength="895.01" waitingTime="4.00" waitingCount="1" stopTime="0.00" timeLoss="20.95" rerouteNo="0" devices="tripinfo_35" vType="DEFAULT_VEHTYPE" speedFactor="1.07" vaporized=""/>
    <tripinfo id="17" depart="77.00" departLane="left0A0_0" departPos="5.10" departSpeed="0.00" departDelay="0.00" arrival="240.00" arrivalLane="A0left0_0" arrivalPos="286.40" arrivalSpeed="13.83" duration="163.00" routeLength="1745.91" waitingTime="10.00" waitingCount="3" stopTime="0.00" timeLoss="39.66" rerouteNo="0" devices="tripinfo_17" vType="DEFAULT_VEHTYPE" speedFactor="1.04" vaporized=""/>
    <tripinfo id="9" depart="48.00" departLane="right1D1_0" departPos="5.10" departSpeed="0.00" departDelay="0.00" arrival="252.00" arrivalLane="B3top1_0" arrivalPos="286.40" arrivalSpeed="11.97" duration="204.00" routeLength="1780.11" waitingTime="23.00" waitingCount="4" stopTime="0.00" timeLoss="58.46" rerouteNo="0" devices="tripinfo_9" vType="DEFAULT_VEHTYPE" speedFactor="0.89" vaporized=""/>
    <tripinfo id="22" depart="88.00" departLane="top1B3_0" departPos="5.10" departSpeed="0.00" departDelay="0.00" arrival="259.00" arrivalLane="B0bottom1_0" arrivalPos="286.40" arrivalSpeed="14.19" duration="171.00" routeLength="1495.58" waitingTime="37.00" waitingCount="4" stopTime="0.00" timeLoss="67.39" rerouteNo="0" devices="tripinfo_22" vType="DEFAULT_VEHTYPE" speedFactor="1.04" vaporized=""/>
    <tripinfo id="11" depart="52.00" departLane="right3D3_0" departPos="5.10" departSpeed="0.00" departDelay="0.00" arrival="260.00" arrivalLane="B0bottom1_1" arrivalPos="286.40" arrivalSpeed="14.45" duration="208.00" routeLength="2095.69" waitingTime="32.00" waitingCount="4" stopTime="0.00" timeLoss="68.71" rerouteNo="0" devices="tripinfo_11" vType="DEFAULT_VEHTYPE" speedFactor="1.09" vaporized=""/>
    <tripinfo id="12" depart="63.00" departLane="top1B3_0" departPos="5.10" departSpeed="0.00" departDelay="0.00" arrival="261.00" arrivalLane="C0bottom2_0" arrivalPos="286.40" arrivalSpeed="12.71" duration="198.00" routeLength="1782.59" waitingTime="32.00" waitingCount="4" stopTime="0.00" timeLoss="61.79" rerouteNo="0" devices="tripinfo_12" vType="DEFAULT_VEHTYPE" speedFactor="0.95" vaporized=""/>
    <tripinfo id="16" depart="72.00" departLane="top3D3_0" departPos="5.10" departSpeed="0.00" departDelay="0.00" arrival="261.00" arrivalLane="D3top3_0" arrivalPos="286.40" arrivalSpeed="12.92" duration="189.00" routeLength="1748.75" waitingTime="24.00" waitingCount="4" stopTime="0.00" timeLoss="56.23" rerouteNo="0" devices="tripinfo_16" vType="DEFAULT_VEHTYPE" speedFactor="0.97" vaporized=""/>
    <tripinfo id="29" depart="135.00" departLane="right3D3_0" departPos="5.10" departSpeed="0.00" departDelay="0.00" arrival="262.00" arrivalLane="D1right1_0" arrivalPos="286.40" arrivalSpeed="12.17" duration="127.00" routeLength="1197.66" waitingTime="14.00" waitingCount="2" stopTime="0.00" timeLoss="30.15" rerouteNo="0" devices="tripinfo_29" vType="DEFAULT_VEHTYPE" speedFactor="0.91" vaporized=""/>
    <tripinfo id="23" depart="90.00" departLane="left1A1_0" departPos="5.10" departSpeed="0.00" departDelay="0.00" arrival="264.00" arrivalLane="C0bottom2_0" arrivalPos="286.40" arrivalSpeed="12.10" duration="174.00" routeLength="1479.94" waitingTime="26.00" waitingCount="3" stopTime="0.00" timeLoss="52.99" rerouteNo="0" devices="tripinfo_23" vType="DEFAULT_VEHTYPE" speedFactor="0.89" vaporized=""/>
    <tripinfo id="20" depart="87.00" departLane="right1D1_0" departPos="5.10" departSpeed="0.00" departDelay="0.00" arrival="277.00" arrivalLane="A0left0_0" arrivalPos="286.40" arrivalSpeed="14.65" duration="190.00" routeLength="1782.59" waitingTime="35.00" waitingCount="5" stopTime="0.00" timeLoss="74.06" rerouteNo="0" devices="tripinfo_20" vType="DEFAULT_VEHTYPE" speedFactor="1.12" vaporized=""/>
    <tripinfo id="50" depart="219.00" departLane="bottom0A0_0" departPos="5.10" departSpeed="0.00" departDelay="0.00" arrival="288.00" arrivalLane="A0left0_0" arrivalPos="286.40" arrivalSpeed="13.88" duration="69.00" routeLength="597.55" waitingTime="17.00" waitingCount="1" stopTime="0.00" timeLoss="27.60" rerouteNo="0" devices="tripinfo_50" vType="DEFAULT_VEHTYPE" speedFactor="1.06" vaporized=""/>
    <tripinfo id="18" depart="77.00" departLane="bottom0A0_0" departPos="5.10" departSpeed="0.00" departDelay="0.00" arrival="290.00" arrivalLane="D3top3_0" arrivalPos="286.40" arrivalSpeed="13.08" duration="213.00" routeLength="2382.93" waitingTime="11.00" waitingCount="2" stopTime="0.00" timeLoss="43.10" rerouteNo="0" devices="tripinfo_18" vType="DEFAULT_VEHTYPE" speedFactor="1.02" vaporized=""/>
    <tripinfo id="25" depart="107.00" departLane="bottom2C0_0" departPos="5.10" departSpeed="0.00" departDelay="1.00" arrival="293.00" arrivalLane="C3top2_1" arrivalPos="286.40" arrivalSpeed="13.03" duration="186.00" routeLength="1495.58" waitingTime="28.00" waitingCount="3" stopTime="0.00" timeLoss="73.80" rerouteNo="0" devices="tripinfo_25" vType="DEFAULT_VEHTYPE" speedFactor="0.96" vaporized=""/>
    <tripinfo id="24" depart="104.00" departLane="bottom2C0_0" departPos="5.10" departSpeed="0.00" departDelay="0.00" arrival="295.00" arrivalLane="C3top2_0" arrivalPos="286.40" arrivalSpeed="10.00" duration="191.00" routeLength="1495.58" waitingTime="30.00" waitingCount="3" stopTime="0.00" timeLoss="56.24" rerouteNo="0" devices="tripinfo_24" vType="DEFAULT_VEHTYPE" speedFactor="0.80" vaporized=""/>
    <tripinfo id="31" depart="149.00" departLane="bottom3D0_0" departPos="5.10" departSpeed="0.00" departDelay="0.00" arrival="297.00" arrivalLane="D3right3_0" arrivalPos="286.40" arrivalSpeed="13.12" duration="148.00" routeLength="1477.24" waitingTime="13.00" waitingCount="3" stopTime="0.00" timeLoss="38.87" rerouteNo="0" devices="tripinfo_31" vType="DEFAULT_VEHTYPE" speedFactor="0.98" vaporized=""/>
    <tripinfo id="27" depart="126.00" departLane="right2D2_0" departPos="5.10" departSpeed="0.00" departDelay="0.00" arrival="313.00" arrivalLane="A2left2_0" arrivalPos="286.40" arrivalSpeed="10.94" duration="187.00" routeLength="1495.58" waitingTime="36.00" waitingCount="3" stopTime="0.00" timeLoss="61.67" rerouteNo="0" devices="tripinfo_27" vType="DEFAULT_VEHTYPE" speedFactor="0.86" vaporized=""/>
    <tripinfo id="54" depart="234.00" departLane="right1D1_0" departPos="5.10" departSpeed="0.00" departDelay="0.00" arrival="317.00" arrivalLane="D0bottom3_0" arrivalPos="286.40" arrivalSpeed="14.78" duration="83.00" routeLength="895.01" waitingTime="11.00" waitingCount="1" stopTime="0.00" timeLoss="24.21" rerouteNo="0" devices="tripinfo_54" vType="DEFAULT_VEHTYPE" speedFactor="1.12" vaporized=""/>
    <tripinfo id="45" depart="195.00" departLane="left3A3_0" departPos="5.10" departSpeed="0.00" departDelay="0.00" arrival="319.00" arrivalLane="D3right3_0" arrivalPos="286.40" arrivalSpeed="14.07" duration="124.00" routeLength="1495.58" waitingTime="2.00" waitingCount="1" stopTime="0.00" timeLoss="24.25" rerouteNo="0" devices="tripinfo_45" vType="DEFAULT_VEHTYPE" speedFactor="1.08" vaporized=""/>
    <tripinfo id="42" depart="190.00" departLane="top2C3_0" departPos="5.10" departSpeed="0.00" departDelay="0.00" arrival="338.00" arrivalLane="A2left2_0" arrivalPos="286.40" arrivalSpeed="10.65" duration="148.00" routeLength="1479.94" waitingTime="1.00" waitingCount="1" stopTime="0.00" timeLoss="14.51" rerouteNo="0" devices="tripinfo_42" vType="DEFAULT_VEHTYPE" speedFactor="0.81" vaporized=""/>
    <tripinfo id="46" depart="196.00" departLane="left0A0_0" departPos="5.10" departSpeed="0.00" departDelay="0.00" arrival="338.00" arrivalLane="A3left3_0" arrivalPos="286.40" arrivalSpeed="14.71" duration="142.00" routeLength="1497.83" waitingTime="22.00" waitingCount="2" stopTime="0.00" timeLoss="40.30" rerouteNo="0" devices="tripinfo_46" vType="DEFAULT_VEHTYPE" speedFactor="1.07" vaporized=""/>
    <tripinfo id="57" depart="254.00" departLane="top0A3_0" departPos="5.10" departSpeed="0.00" departDelay="0.00" arrival="338.00" arrivalLane="B3top1_0" arrivalPos="286.40" arrivalSpeed="14.59" duration="84.00" routeLength="894.86" waitingTime="11.00" waitingCount="1" stopTime="0.00" timeLoss="22.24" rerouteNo="0" devices="tripinfo_57" vType="DEFAULT_VEHTYPE" speedFactor="1.07" vaporized=""/>
    <tripinfo id="28" depart="134.00" departLane="right0D0_0" departPos="5.10" departSpeed="0.00" departDelay="0.00" arrival="339.00" arrivalLane="A1left1_0" arrivalPos="286.40" arrivalSpeed="13.36" duration="205.00" routeLength="1782.72" waitingTime="38.00" waitingCount="5" stopTime="0.00" timeLoss="76.21" rerouteNo="0" devices="tripinfo_28" vType="DEFAULT_VEHTYPE" speedFactor="1.00" vaporized=""/>
    <tripinfo id="59" depart="263.00" departLane="left3A3_0" departPos="5.10" departSpeed="0.00" departDelay="0.00" arrival="352.00" arrivalLane="A2left2_0" arrivalPos="286.40" arrivalSpeed="10.69" duration="89.00" routeLength="858.56" waitingTime="1.00" waitingCount="1" stopTime="0.00" timeLoss="14.55" rerouteNo="0" devices="tripinfo_59" vType="DEFAULT_VEHTYPE" speedFactor="0.86" vaporized=""/>
    <tripinfo id="55" depart="243.00" departLane="left2A2_0" departPos="5.10" departSpeed="0.00" departDelay="0.00" arrival="358.00" arrivalLane="B3top1_0" arrivalPos="286.40" arrivalSpeed="13.92" duration="115.00" routeLength="1195.18" waitingTime="20.00" waitingCount="1" stopTime="0.00" timeLoss="35.33" rerouteNo="0" devices="tripinfo_55" vType="DEFAULT_VEHTYPE" speedFactor="1.10" vaporized=""/>
    <tripinfo id="44" depart="190.00" departLane="left1A1_0" departPos="5.10" departSpeed="0.00" departDelay="0.00" arrival="363.00" arrivalLane="B3top1_0" arrivalPos="286.40" arrivalSpeed="12.52" duration="173.00" routeLength="1495.35" waitingTime="31.00" waitingCount="4" stopTime="0.00" timeLoss="58.24" rerouteNo="0" devices="tripinfo_44" vType="DEFAULT_VEHTYPE" speedFactor="0.95" vaporized=""/>
    <tripinfo id="68" depart="288.00" departLane="right0D0_0" departPos="5.10" departSpeed="0.00" departDelay="0.00" arrival="364.00" arrivalLane="D1right1_0" arrivalPos="286.40" arrivalSpeed="15.22" duration="76.00" routeLength="858.56" waitingTime="4.00" waitingCount="1" stopTime="0.00" timeLoss="19.43" rerouteNo="0" devices="tripinfo_68" vType="DEFAULT_VEHTYPE" speedFactor="1.12" vaporized=""/>
    <tripinfo id="32" depart="149.00" departLane="left3A3_0" departPos="5.10" departSpeed="0.00" departDelay="0.00" arrival="366.00" arrivalLane="D0bottom3_0" arrivalPos="286.40" arrivalSpeed="15.53" duration="217.00" routeLength="2380.45" waitingTime="27.00" waitingCount="4" stopTime="0.00" timeLoss="65.11" rerouteNo="0" devices="tripinfo_32" vType="DEFAULT_VEHTYPE" speedFactor="1.13" vaporized=""/>
    <tripinfo id="43" depart="190.00" departLane="top3D3_0" departPos="5.10" departSpeed="0.00" departDelay="0.00" arrival="369.00" arrivalLane="C0bottom2_0" arrivalPos="286.40" arrivalSpeed="14.49" duration="179.00" routeLength="1782.72" waitingTime="24.00" waitingCount="4" stopTime="0.00" timeLoss="54.74" rerouteNo="0" devices="tripinfo_43" vType="DEFAULT_VEHTYPE" speedFactor="1.05" vaporized=""/>
    <tripinfo id="62" depart="276.00" departLane="left1A1_0" departPos="5.10" departSpeed="0.00" departDelay="2.00" arrival="370.00" arrivalLane="A2left2_0" arrivalPos="286.40" arrivalSpeed="13.63" duration="94.00" routeLength="894.86" waitingTime="9.00" waitingCount="1" stopTime="0.00" timeLoss="28.20" rerouteNo="0" devices="tripinfo_62" vType="DEFAULT_VEHTYPE" speedFactor="1.00" vaporized=""/>
    <tripinfo id="49" depart="208.00" departLane="left2A2_0" departPos="5.10" departSpeed="0.00" departDelay="1.00" arrival="371.00" arrivalLane="C0bottom2_0" arrivalPos="286.40" arrivalSpeed="14.21" duration="163.00" routeLength="1780.11" waitingTime="13.00" waitingCount="2" stopTime="0.00" timeLoss="38.12" rerouteNo="0" devices="tripinfo_49" vType="DEFAULT_VEHTYPE" speedFactor="1.04" vaporized=""/>
    <tripinfo id="30" depart="147.00" departLane="top0A3_0" departPos="5.10" departSpeed="0.00" departDelay="0.00" arrival="374.00" arrivalLane="C0bottom2_0" arrivalPos="286.40" arrivalSpeed="13.15" duration="227.00" routeLength="2080.05" waitingTime="53.00" waitingCount="2" stopTime="0.00" timeLoss="76.67" rerouteNo="0" devices="tripinfo_30" vType="DEFAULT_VEHTYPE" speedFactor="1.01" vaporized=""/>
    <tripinfo id="60" depart="264.00" departLane="top2C3_0" departPos="5.10" departSpeed="0.00" departDelay="0.00" arrival="374.00" arrivalLane="A3top0_0" arrivalPos="286.40" arrivalSpeed="14.44" duration="110.00" routeLength="1161.43" waitingTime="11.00" waitingCount="2" stopTime="0.00" timeLoss="29.10" rerouteNo="0" devices="tripinfo_60" vType="DEFAULT_VEHTYPE" speedFactor="1.05" vaporized=""/>
    <tripinfo id="48" depart="205.00" departLane="left2A2_0" departPos="5.10" departSpeed="0.00" departDelay="0.00" arrival="376.00" arrivalLane="D3right3_0" arrivalPos="286.40" arrivalSpeed="15.05" duration="171.00" routeLength="1782.59" waitingTime="26.00" waitingCount="3" stopTime="0.00" timeLoss="56.02" rerouteNo="0" devices="tripinfo_48" vType="DEFAULT_VEHTYPE" speedFactor="1.13" vaporized=""/>
    <tripinfo id="53" depart="232.00" departLane="left2A2_0" departPos="5.10" departSpeed="0.00" departDelay="0.00" arrival="382.00" arrivalLane="D3right3_0" arrivalPos="286.40" arrivalSpeed="14.74" duration="150.00" routeLength="1782.59" waitingTime="6.00" waitingCount="2" stopTime="0.00" timeLoss="30.26" rerouteNo="0" devices="tripinfo_53" vType="DEFAULT_VEHTYPE" speedFactor="1.09" vaporized=""/>
    <tripinfo id="61" depart="273.00" departLane="left1A1_0" departPos="5.10" departSpeed="0.00" departDelay="0.00" arrival="387.00" arrivalLane="A3left3_0" arrivalPos="286.40" arrivalSpeed="15.07" duration="114.00" routeLength="1197.66" waitingTime="17.00" waitingCount="2" stopTime="0.00" timeLoss="36.86" rerouteNo="0" devices="tripinfo_61" vType="DEFAULT_VEHTYPE" speedFactor="1.13" vaporized=""/>
    <tripinfo id="36" depart="166.00" departLane="top1B3_0" departPos="5.10" departSpeed="0.00" departDelay="0.00" arrival="390.00" arrivalLane="D1right1_0" arrivalPos="286.40" arrivalSpeed="12.90" duration="224.00" routeLength="1795.52" waitingTime="52.00" waitingCount="4" stopTime="0.00" timeLoss="85.21" rerouteNo="0" devices="tripinfo_36" vType="DEFAULT_VEHTYPE" speedFactor="0.94" vaporized=""/>
    <tripinfo id="39" depart="184.00" departLane="left1A1_0" departPos="5.10" departSpeed="0.00" departDelay="0.00" arrival="390.00" arrivalLane="D3top3_0" arrivalPos="286.40" arrivalSpeed="12.80" duration="206.00" routeLength="2095.69" waitingTime="18.00" waitingCount="3" stopTime="0.00" timeLoss="50.73" rerouteNo="0" devices="tripinfo_39" vType="DEFAULT_VEHTYPE" speedFactor="0.98" vaporized=""/>
    <tripinfo id="65" depart="282.00" departLane="bottom2C0_0" departPos="5.10" departSpeed="0.00" departDelay="0.00" arrival="391.00" arrivalLane="D1right1_1" arrivalPos="286.40" arrivalSpeed="12.92" duration="109.00" routeLength="1179.77" waitingTime="4.00" waitingCount="1" stopTime="0.00" timeLoss="22.42" rerouteNo="0" devices="tripinfo_65" vType="DEFAULT_VEHTYPE" speedFactor="0.99" vaporized=""/>
    <tripinfo id="40" depart="186.00" departLane="right2D2_0" departPos="5.10" departSpeed="0.00" departDelay="0.00" arrival="396.00" arrivalLane="A3top0_0" arrivalPos="286.40" arrivalSpeed="11.83" duration="210.00" routeLength="1780.11" waitingTime="40.00" waitingCount="4" stopTime="0.00" timeLoss="68.00" rerouteNo="0" devices="tripinfo_40" vType="DEFAULT_VEHTYPE" speedFactor="0.91" vaporized=""/>
    <tripinfo id="73" depart="310.00" departLane="left2A2_0" departPos="5.10" departSpeed="0.00" departDelay="0.00" arrival="398.00" arrivalLane="A1left1_0" arrivalPos="286.40" arrivalSpeed="10.94" duration="88.00" routeLength="858.56" waitingTime="1.00" waitingCount="1" stopTime="0.00" timeLoss="14.29" rerouteNo="0" devices="tripinfo_73" vType="DEFAULT_VEHTYPE" speedFactor="0.86" vaporized=""/>
    <tripinfo id="41" depart="189.00" departLane="top1B3_0" departPos="5.10" departSpeed="0.00" departDelay="0.00" arrival="405.00" arrivalLane="B3top1_0" arrivalPos="286.40" arrivalSpeed="10.30" duration="216.00" routeLength="1748.75" waitingTime="22.00" waitingCount="5" stopTime="0.00" timeLoss="57.23" rerouteNo="0" devices="tripinfo_41" vType="DEFAULT_VEHTYPE" speedFactor="0.81" vaporized=""/>
    <tripinfo id="47" depart="202.00" departLane="right1D1_0" departPos="5.10" departSpeed="0.00" departDelay="0.00" arrival="406.00" arrivalLane="A3left3_0" arrivalPos="286.40" arrivalSpeed="12.63" duration="204.00" routeLength="2082.76" waitingTime="15.00" waitingCount="2" stopTime="0.00" timeLoss="41.67" rerouteNo="0" devices="tripinfo_47" vType="DEFAULT_VEHTYPE" speedFactor="0.93" vaporized=""/>
    <tripinfo id="78" depart="330.00" departLane="top2C3_0" departPos="5.10" departSpeed="0.00" departDelay="0.00" arrival="411.00" arrivalLane="B3top1_1" arrivalPos="286.40" arrivalSpeed="14.44" duration="81.00" routeLength="858.56" waitingTime="7.00" waitingCount="2" stopTime="0.00" timeLoss="23.58" rerouteNo="0" devices="tripinfo_78" vType="DEFAULT_VEHTYPE" speedFactor="1.11" vaporized=""/>
    <tripinfo id="37" depart="180.00" departLane="bottom2C0_0" departPos="5.10" departSpeed="0.00" departDelay="0.00" arrival="412.00" arrivalLane="B3top1_0" arrivalPos="286.40" arrivalSpeed="11.84" duration="232.00" routeLength="1782.59" waitingTime="48.00" waitingCount="4" stopTime="0.00" timeLoss="85.44" rerouteNo="0" devices="tripinfo_37" vType="DEFAULT_VEHTYPE" speedFactor="0.88" vaporized=""/>
    <tripinfo id="72" depart="306.00" departLane="right3D3_0" departPos="5.10" departSpeed="0.00" departDelay="0.00" arrival="420.00" arrivalLane="B3top1_0" arrivalPos="286.40" arrivalSpeed="12.31" duration="114.00" routeLength="1177.07" waitingTime="3.00" waitingCount="1" stopTime="0.00" timeLoss="20.95" rerouteNo="0" devices="tripinfo_72" vType="DEFAULT_VEHTYPE" speedFactor="0.92" vaporized=""/>
    <tripinfo id="38" depart="182.00" departLane="left3A3_0" departPos="5.10" departSpeed="0.00" departDelay="0.00" arrival="421.00" arrivalLane="D0bottom3_0" arrivalPos="286.40" arrivalSpeed="12.29" duration="239.00" routeLength="2380.45" waitingTime="30.00" waitingCount="2" stopTime="0.00" timeLoss="52.58" rerouteNo="0" devices="tripinfo_38" vType="DEFAULT_VEHTYPE" speedFactor="0.93" vaporized=""/>
    <tripinfo id="82" depart="340.00" departLane="left2A2_0" departPos="5.10" departSpeed="0.00" departDelay="0.00" arrival="424.00" arrivalLane="A3top0_0" arrivalPos="286.40" arrivalSpeed="12.86" duration="84.00" routeLength="895.01" waitingTime="5.00" waitingCount="1" stopTime="0.00" timeLoss="16.32" rerouteNo="0" devices="tripinfo_82" vType="DEFAULT_VEHTYPE" speedFactor="0.96" vaporized=""/>
    <tripinfo id="58" depart="260.00" departLane="top2C3_0" departPos="5.10" departSpeed="0.00" departDelay="0.00" arrival="429.00" arrivalLane="D1right1_0" arrivalPos="286.40" arrivalSpeed="12.60" duration="169.00" routeLength="1495.35" waitingTime="35.00" waitingCount="3" stopTime="0.00" timeLoss="60.06" rerouteNo="0" devices="tripinfo_58" vType="DEFAULT_VEHTYPE" speedFactor="0.99" vaporized=""/>
    <tripinfo id="86" depart="356.00" departLane="top3D3_0" departPos="5.10" departSpeed="0.00" departDelay="0.00" arrival="432.00" arrivalLane="D3right3_0" arrivalPos="286.40" arrivalSpeed="11.29" duration="76.00" routeLength="597.55" waitingTime="18.00" waitingCount="1" stopTime="0.00" timeLoss="27.63" rerouteNo="0" devices="tripinfo_86" vType="DEFAULT_VEHTYPE" speedFactor="0.90" vaporized=""/>
    <tripinfo id="64" depart="276.00" departLane="right0D0_0" departPos="5.10" departSpeed="0.00" departDelay="0.00" arrival="439.00" arrivalLane="A0bottom0_0" arrivalPos="286.40" arrivalSpeed="14.34" duration="163.00" routeLength="1498.06" waitingTime="28.00" waitingCount="4" stopTime="0.00" timeLoss="58.02" rerouteNo="0" devices="tripinfo_64" vType="DEFAULT_VEHTYPE" speedFactor="1.04" vaporized=""/>
    <tripinfo id="33" depart="150.00" departLane="bottom0A0_0" departPos="5.10" departSpeed="0.00" departDelay="0.00" arrival="440.00" arrivalLane="D3right3_0" arrivalPos="286.40" arrivalSpeed="12.49" duration="290.00" routeLength="2380.45" waitingTime="62.00" waitingCount="6" stopTime="0.00" timeLoss="112.57" rerouteNo="0" devices="tripinfo_33" vType="DEFAULT_VEHTYPE" speedFactor="0.97" vaporized=""/>
    <tripinfo id="52" depart="227.00" departLane="bottom1B0_0" departPos="5.10" departSpeed="0.00" departDelay="0.00" arrival="448.00" arrivalLane="D3top3_0" arrivalPos="286.40" arrivalSpeed="14.03" duration="221.00" routeLength="2082.76" waitingTime="40.00" waitingCount="4" stopTime="0.00" timeLoss="78.48" rerouteNo="0" devices="tripinfo_52" vType="DEFAULT_VEHTYPE" speedFactor="1.06" vaporized=""/>
    <tripinfo id="77" depart="329.00" departLane="left3A3_0" departPos="5.10" departSpeed="0.00" departDelay="0.00" arrival="477.00" arrivalLane="A0left0_0" arrivalPos="286.40" arrivalSpeed="12.72" duration="148.00" routeLength="1461.60" waitingTime="8.00" waitingCount="4" stopTime="0.00" timeLoss="38.60" rerouteNo="0" devices="tripinfo_77" vType="DEFAULT_VEHTYPE" speedFactor="0.97" vaporized=""/>
    <tripinfo id="75" depart="312.00" departLane="top1B3_0" departPos="5.10" departSpeed="0.00" departDelay="0.00" arrival="481.00" arrivalLane="B0bottom1_0" arrivalPos="286.40" arrivalSpeed="12.16" duration="169.00" routeLength="1495.58" waitingTime="28.00" waitingCount="3" stopTime="0.00" timeLoss="53.19" rerouteNo="0" devices="tripinfo_75" vType="DEFAULT_VEHTYPE" speedFactor="0.93" vaporized=""/>