<?xml version="1.0" encoding="UTF-8"?>

<!-- generated on 12/19/21 11:11:42 by Eclipse SUMO sumo Version 1.7.0
<configuration xmlns:xsi="http://www.w3.org/2001/XMLSchema-instance" xsi:noNamespaceSchemaLocation="http://sumo.dlr.de/xsd/sumoConfiguration.xsd">

    <input>
        <net-file value="C:\Users\longs\Desktop\RESCO-main\environments\grid4x4\grid4x4.net.xml"/>
        <route-files value="C:\Users\longs\Desktop\RESCO-main\environments\grid4x4\grid4x4_24.rou.xml"/>
    </input>

    <output>
        <tripinfo-output value="C:\Users\longs\Desktop\RESCO-main\logs\IDQN-tr1-grid4x4-0-drqlong-delaydiff_pressure01\tripinfo_24.xml"/>
        <tripinfo-output.write-unfinished value="true"/>
    </output>

    <processing>
        <time-to-teleport value="-1"/>
    </processing>

    <report>
        <no-warnings value="true"/>
        <no-step-log value="true"/>
    </report>

    <traci_server>
        <remote-port value="59828"/>
    </traci_server>

    <random_number>
        <random value="true"/>
    </random_number>

</configuration>
-->

<tripinfos xmlns:xsi="http://www.w3.org/2001/XMLSchema-instance" xsi:noNamespaceSchemaLocation="http://sumo.dlr.de/xsd/tripinfo_file.xsd">
    <tripinfo id="3" depart="17.00" departLane="left0A0_0" departPos="5.10" departSpeed="0.00" departDelay="0.00" arrival="108.00" arrivalLane="B0bottom1_0" arrivalPos="286.40" arrivalSpeed="13.21" duration="91.00" routeLength="876.90" waitingTime="9.00" waitingCount="2" stopTime="0.00" timeLoss="25.01" rerouteNo="0" devices="tripinfo_3" vType="DEFAULT_VEHTYPE" speedFactor="0.97" vaporized=""/>
    <tripinfo id="12" depart="58.00" departLane="bottom3D0_0" departPos="5.10" departSpeed="0.00" departDelay="0.00" arrival="114.00" arrivalLane="D0right0_0" arrivalPos="286.40" arrivalSpeed="12.12" duration="56.00" routeLength="576.73" waitingTime="1.00" waitingCount="1" stopTime="0.00" timeLoss="11.60" rerouteNo="0" devices="tripinfo_12" vType="DEFAULT_VEHTYPE" speedFactor="0.95" vaporized=""/>
    <tripinfo id="10" depart="50.00" departLane="right1D1_0" departPos="5.10" departSpeed="0.00" departDelay="0.00" arrival="131.00" arrivalLane="D2right2_0" arrivalPos="286.40" arrivalSpeed="12.37" duration="81.00" routeLength="858.56" waitingTime="1.00" waitingCount="1" stopTime="0.00" timeLoss="13.02" rerouteNo="0" devices="tripinfo_10" vType="DEFAULT_VEHTYPE" speedFactor="0.93" vaporized=""/>
    <tripinfo id="4" depart="24.00" departLane="right2D2_0" departPos="5.10" departSpeed="0.00" departDelay="0.00" arrival="138.00" arrivalLane="D3top3_0" arrivalPos="286.40" arrivalSpeed="14.43" duration="114.00" routeLength="879.60" waitingTime="37.00" waitingCount="2" stopTime="0.00" timeLoss="54.09" rerouteNo="0" devices="tripinfo_4" vType="DEFAULT_VEHTYPE" speedFactor="1.08" vaporized=""/>
    <tripinfo id="6" depart="27.00" departLane="top1B3_0" departPos="5.10" departSpeed="0.00" departDelay="0.00" arrival="139.00" arrivalLane="C3top2_0" arrivalPos="286.40" arrivalSpeed="13.90" duration="112.00" routeLength="894.86" waitingTime="30.00" waitingCount="2" stopTime="0.00" timeLoss="47.79" rerouteNo="0" devices="tripinfo_6" vType="DEFAULT_VEHTYPE" speedFactor="1.03" vaporized=""/>
    <tripinfo id="7" depart="30.00" departLane="left3A3_0" departPos="5.10" departSpeed="0.00" departDelay="0.00" arrival="139.00" arrivalLane="C3top2_1" arrivalPos="286.40" arrivalSpeed="14.99" duration="109.00" routeLength="1197.89" waitingTime="10.00" waitingCount="2" stopTime="0.00" timeLoss="30.41" rerouteNo="0" devices="tripinfo_7" vType="DEFAULT_VEHTYPE" speedFactor="1.10" vaporized=""/>
    <tripinfo id="9" depart="48.00" departLane="bottom3D0_0" departPos="5.10" departSpeed="0.00" departDelay="0.00" arrival="166.00" arrivalLane="B0bottom1_0" arrivalPos="286.40" arrivalSpeed="14.83" duration="118.00" routeLength="1197.66" waitingTime="23.00" waitingCount="2" stopTime="0.00" timeLoss="42.77" rerouteNo="0" devices="tripinfo_9" vType="DEFAULT_VEHTYPE" speedFactor="1.16" vaporized=""/>
    <tripinfo id="16" depart="75.00" departLane="left0A0_0" departPos="5.10" departSpeed="0.00" departDelay="0.00" arrival="176.00" arrivalLane="A1left1_0" arrivalPos="286.40" arrivalSpeed="14.89" duration="101.00" routeLength="894.86" waitingTime="33.00" waitingCount="1" stopTime="0.00" timeLoss="44.02" rerouteNo="0" devices="tripinfo_16" vType="DEFAULT_VEHTYPE" speedFactor="1.16" vaporized=""/>
    <tripinfo id="28" depart="142.00" departLane="bottom3D0_0" departPos="5.10" departSpeed="0.00" departDelay="0.00" arrival="189.00" arrivalLane="D0right0_0" arrivalPos="286.40" arrivalSpeed="14.24" duration="47.00" routeLength="576.73" waitingTime="0.00" waitingCount="0" stopTime="0.00" timeLoss="7.54" rerouteNo="0" devices="tripinfo_28" vType="DEFAULT_VEHTYPE" speedFactor="1.08" vaporized=""/>
    <tripinfo id="1" depart="7.00" departLane="bottom0A0_0" departPos="5.10" departSpeed="0.00" departDelay="0.00" arrival="201.00" arrivalLane="A0bottom0_0" arrivalPos="286.40" arrivalSpeed="12.60" duration="194.00" routeLength="1748.75" waitingTime="33.00" waitingCount="2" stopTime="0.00" timeLoss="59.06" rerouteNo="0" devices="tripinfo_1" vType="DEFAULT_VEHTYPE" speedFactor="0.95" vaporized=""/>
    <tripinfo id="0" depart="2.00" departLane="bottom2C0_0" departPos="5.10" departSpeed="0.00" departDelay="0.00" arrival="202.00" arrivalLane="A1left1_0" arrivalPos="286.40" arrivalSpeed="11.63" duration="200.00" routeLength="1495.35" waitingTime="52.00" waitingCount="2" stopTime="0.00" timeLoss="76.36" rerouteNo="0" devices="tripinfo_0" vType="DEFAULT_VEHTYPE" speedFactor="0.88" vaporized=""/>
    <tripinfo id="2" depart="13.00" departLane="top2C3_0" departPos="5.10" departSpeed="0.00" departDelay="0.00" arrival="206.00" arrivalLane="A2left2_0" arrivalPos="286.40" arrivalSpeed="14.76" duration="193.00" routeLength="1479.94" waitingTime="69.00" waitingCount="4" stopTime="0.00" timeLoss="100.11" rerouteNo="0" devices="tripinfo_2" vType="DEFAULT_VEHTYPE" speedFactor="1.16" vaporized=""/>
    <tripinfo id="32" depart="156.00" departLane="bottom3D0_0" departPos="5.10" departSpeed="0.00" departDelay="0.00" arrival="206.00" arrivalLane="D0right0_0" arrivalPos="286.40" arrivalSpeed="12.53" duration="50.00" routeLength="576.73" waitingTime="0.00" waitingCount="0" stopTime="0.00" timeLoss="7.02" rerouteNo="0" devices="tripinfo_32" vType="DEFAULT_VEHTYPE" speedFactor="0.99" vaporized=""/>
    <tripinfo id="39" depart="180.00" departLane="top0A3_0" departPos="5.10" departSpeed="0.00" departDelay="0.00" arrival="234.00" arrivalLane="A3left3_0" arrivalPos="286.40" arrivalSpeed="13.31" duration="54.00" routeLength="576.73" waitingTime="1.00" waitingCount="1" stopTime="0.00" timeLoss="11.50" rerouteNo="0" devices="tripinfo_39" vType="DEFAULT_VEHTYPE" speedFactor="1.01" vaporized=""/>
    <tripinfo id="26" depart="132.00" departLane="top0A3_0" departPos="5.10" departSpeed="0.00" departDelay="0.00" arrival="245.00" arrivalLane="A2left2_0" arrivalPos="286.40" arrivalSpeed="11.73" duration="113.00" routeLength="876.90" waitingTime="20.00" waitingCount="2" stopTime="0.00" timeLoss="38.21" rerouteNo="0" devices="tripinfo_26" vType="DEFAULT_VEHTYPE" speedFactor="0.86" vaporized=""/>
    <tripinfo id="35" depart="163.00" departLane="top2C3_0" departPos="5.10" departSpeed="0.00" departDelay="0.00" arrival="245.00" arrivalLane="B3top1_0" arrivalPos="286.40" arrivalSpeed="12.60" duration="82.00" routeLength="858.56" waitingTime="1.00" waitingCount="1" stopTime="0.00" timeLoss="14.37" rerouteNo="0" devices="tripinfo_35" vType="DEFAULT_VEHTYPE" speedFactor="0.94" vaporized=""/>
    <tripinfo id="25" depart="127.00" departLane="left0A0_0" departPos="5.10" departSpeed="0.00" departDelay="0.00" arrival="253.00" arrivalLane="C0bottom2_0" arrivalPos="286.40" arrivalSpeed="15.68" duration="126.00" routeLength="1177.07" waitingTime="32.00" waitingCount="2" stopTime="0.00" timeLoss="53.65" rerouteNo="0" devices="tripinfo_25" vType="DEFAULT_VEHTYPE" speedFactor="1.19" vaporized=""/>
    <tripinfo id="13" depart="61.00" departLane="bottom3D0_0" departPos="5.10" departSpeed="0.00" departDelay="1.00" arrival="260.00" arrivalLane="A0bottom0_0" arrivalPos="286.40" arrivalSpeed="12.31" duration="199.00" routeLength="1497.83" waitingTime="61.00" waitingCount="4" stopTime="0.00" timeLoss="87.71" rerouteNo="0" devices="tripinfo_13" vType="DEFAULT_VEHTYPE" speedFactor="0.98" vaporized=""/>
    <tripinfo id="5" depart="25.00" departLane="right0D0_0" departPos="5.10" departSpeed="0.00" departDelay="0.00" arrival="262.00" arrivalLane="B3top1_0" arrivalPos="286.40" arrivalSpeed="11.84" duration="237.00" routeLength="2080.28" waitingTime="31.00" waitingCount="5" stopTime="0.00" timeLoss="67.96" rerouteNo="0" devices="tripinfo_5" vType="DEFAULT_VEHTYPE" speedFactor="0.89" vaporized=""/>
    <tripinfo id="20" depart="90.00" departLane="right2D2_0" departPos="5.10" departSpeed="0.00" departDelay="0.00" arrival="262.00" arrivalLane="D0right0_0" arrivalPos="286.40" arrivalSpeed="11.15" duration="172.00" routeLength="1197.66" waitingTime="54.00" waitingCount="3" stopTime="0.00" timeLoss="74.57" rerouteNo="0" devices="tripinfo_20" vType="DEFAULT_VEHTYPE" speedFactor="0.90" vaporized=""/>
    <tripinfo id="15" depart="68.00" departLane="top3D3_0" departPos="5.10" departSpeed="0.00" departDelay="0.00" arrival="265.00" arrivalLane="C0bottom2_0" arrivalPos="286.40" arrivalSpeed="15.90" duration="197.00" routeLength="1782.72" waitingTime="53.00" waitingCount="4" stopTime="0.00" timeLoss="88.63" rerouteNo="0" devices="tripinfo_15" vType="DEFAULT_VEHTYPE" speedFactor="1.19" vaporized=""/>
    <tripinfo id="33" depart="160.00" departLane="bottom2C0_0" departPos="5.10" departSpeed="0.00" departDelay="0.00" arrival="265.00" arrivalLane="A0bottom0_0" arrivalPos="286.40" arrivalSpeed="13.38" duration="105.00" routeLength="1197.66" waitingTime="6.00" waitingCount="1" stopTime="0.00" timeLoss="18.35" rerouteNo="0" devices="tripinfo_33" vType="DEFAULT_VEHTYPE" speedFactor="1.01" vaporized=""/>
    <tripinfo id="14" depart="65.00" departLane="right1D1_0" departPos="5.10" departSpeed="0.00" departDelay="0.00" arrival="272.00" arrivalLane="B3top1_0" arrivalPos="286.40" arrivalSpeed="13.49" duration="207.00" routeLength="1780.11" waitingTime="48.00" waitingCount="4" stopTime="0.00" timeLoss="78.49" rerouteNo="0" devices="tripinfo_14" vType="DEFAULT_VEHTYPE" speedFactor="1.01" vaporized=""/>
    <tripinfo id="18" depart="87.00" departLane="right2D2_0" departPos="5.10" departSpeed="0.00" departDelay="0.00" arrival="287.00" arrivalLane="A1left1_0" arrivalPos="286.40" arrivalSpeed="14.88" duration="200.00" routeLength="1782.59" waitingTime="50.00" waitingCount="4" stopTime="0.00" timeLoss="87.02" rerouteNo="0" devices="tripinfo_18" vType="DEFAULT_VEHTYPE" speedFactor="1.15" vaporized=""/>
    <tripinfo id="31" depart="154.00" departLane="left3A3_0" departPos="5.10" departSpeed="0.00" departDelay="0.00" arrival="288.00" arrivalLane="B3top1_0" arrivalPos="286.40" arrivalSpeed="13.41" duration="134.00" routeLength="897.72" waitingTime="60.00" waitingCount="1" stopTime="0.00" timeLoss="71.61" rerouteNo="0" devices="tripinfo_31" vType="DEFAULT_VEHTYPE" speedFactor="1.05" vaporized=""/>
    <tripinfo id="27" depart="137.00" departLane="right2D2_0" departPos="5.10" departSpeed="0.00" departDelay="0.00" arrival="291.00" arrivalLane="D0right0_0" arrivalPos="286.40" arrivalSpeed="12.55" duration="154.00" routeLength="1197.66" waitingTime="37.00" waitingCount="3" stopTime="0.00" timeLoss="61.37" rerouteNo="0" devices="tripinfo_27" vType="DEFAULT_VEHTYPE" speedFactor="0.95" vaporized=""/>
    <tripinfo id="37" depart="164.00" departLane="bottom2C0_0" departPos="5.10" departSpeed="0.00" departDelay="0.00" arrival="297.00" arrivalLane="A0bottom0_0" arrivalPos="286.40" arrivalSpeed="14.69" duration="133.00" routeLength="1197.66" waitingTime="32.00" waitingCount="2" stopTime="0.00" timeLoss="54.32" rerouteNo="0" devices="tripinfo_37" vType="DEFAULT_VEHTYPE" speedFactor="1.12" vaporized=""/>
    <tripinfo id="23" depart="101.00" departLane="top1B3_0" departPos="5.10" departSpeed="0.00" departDelay="0.00" arrival="302.00" arrivalLane="D0right0_0" arrivalPos="286.40" arrivalSpeed="12.98" duration="201.00" routeLength="2095.69" waitingTime="19.00" waitingCount="2" stopTime="0.00" timeLoss="42.65" rerouteNo="0" devices="tripinfo_23" vType="DEFAULT_VEHTYPE" speedFactor="0.96" vaporized=""/>
    <tripinfo id="8" depart="42.00" departLane="top2C3_0" departPos="5.10" departSpeed="0.00" departDelay="0.00" arrival="315.00" arrivalLane="D0bottom3_0" arrivalPos="286.40" arrivalSpeed="10.00" duration="273.00" routeLength="1782.59" waitingTime="75.00" waitingCount="5" stopTime="0.00" timeLoss="111.62" rerouteNo="0" devices="tripinfo_8" vType="DEFAULT_VEHTYPE" speedFactor="0.81" vaporized=""/>
    <tripinfo id="17" depart="77.00" departLane="top0A3_0" departPos="5.10" departSpeed="0.00" departDelay="0.00" arrival="319.00" arrivalLane="D0bottom3_0" arrivalPos="286.40" arrivalSpeed="11.78" duration="242.00" routeLength="2380.22" waitingTime="17.00" waitingCount="3" stopTime="0.00" timeLoss="44.23" rerouteNo="0" devices="tripinfo_17" vType="DEFAULT_VEHTYPE" speedFactor="0.88" vaporized=""/>
    <tripinfo id="63" depart="267.00" departLane="left0A0_0" departPos="5.10" departSpeed="0.00" departDelay="0.00" arrival="321.00" arrivalLane="A0bottom0_0" arrivalPos="286.40" arrivalSpeed="13.16" duration="54.00" routeLength="576.73" waitingTime="1.00" waitingCount="1" stopTime="0.00" timeLoss="10.26" rerouteNo="0" devices="tripinfo_63" vType="DEFAULT_VEHTYPE" speedFactor="0.96" vaporized=""/>
    <tripinfo id="41" depart="183.00" departLane="left2A2_0" departPos="5.10" departSpeed="0.00" departDelay="0.00" arrival="328.00" arrivalLane="B3top1_0" arrivalPos="286.40" arrivalSpeed="14.84" duration="145.00" routeLength="1195.18" waitingTime="46.00" waitingCount="2" stopTime="0.00" timeLoss="66.81" rerouteNo="0" devices="tripinfo_41" vType="DEFAULT_VEHTYPE" speedFactor="1.12" vaporized=""/>
    <tripinfo id="19" depart="88.00" departLane="bottom2C0_0" departPos="5.10" departSpeed="0.00" departDelay="0.00" arrival="332.00" arrivalLane="C3top2_0" arrivalPos="286.40" arrivalSpeed="11.71" duration="244.00" routeLength="1495.58" waitingTime="93.00" waitingCount="4" stopTime="0.00" timeLoss="122.34" rerouteNo="0" devices="tripinfo_19" vType="DEFAULT_VEHTYPE" speedFactor="0.89" vaporized=""/>
    <tripinfo id="24" depart="116.00" departLane="top1B3_0" departPos="5.10" departSpeed="0.00" departDelay="0.00" arrival="338.00" arrivalLane="D1right1_0" arrivalPos="286.40" arrivalSpeed="14.65" duration="222.00" routeLength="1795.52" waitingTime="70.00" waitingCount="2" stopTime="0.00" timeLoss="99.40" rerouteNo="0" devices="tripinfo_24" vType="DEFAULT_VEHTYPE" speedFactor="1.06" vaporized=""/>
    <tripinfo id="64" depart="271.00" departLane="bottom0A0_0" departPos="5.10" departSpeed="0.00" departDelay="0.00" arrival="345.00" arrivalLane="A1left1_0" arrivalPos="286.40" arrivalSpeed="17.13" duration="74.00" routeLength="897.72" waitingTime="8.00" waitingCount="1" stopTime="0.00" timeLoss="21.68" rerouteNo="0" devices="tripinfo_64" vType="DEFAULT_VEHTYPE" speedFactor="1.25" vaporized=""/>
    <tripinfo id="61" depart="257.00" departLane="bottom2C0_0" departPos="5.10" departSpeed="0.00" departDelay="0.00" arrival="349.00" arrivalLane="D0right0_0" arrivalPos="286.40" arrivalSpeed="12.74" duration="92.00" routeLength="879.60" waitingTime="10.00" waitingCount="2" stopTime="0.00" timeLoss="27.08" rerouteNo="0" devices="tripinfo_61" vType="DEFAULT_VEHTYPE" speedFactor="0.99" vaporized=""/>
    <tripinfo id="65" depart="278.00" departLane="bottom1B0_0" departPos="5.10" departSpeed="0.00" departDelay="0.00" arrival="356.00" arrivalLane="C0bottom2_0" arrivalPos="286.40" arrivalSpeed="14.24" duration="78.00" routeLength="858.56" waitingTime="2.00" waitingCount="2" stopTime="0.00" timeLoss="17.38" rerouteNo="0" devices="tripinfo_65" vType="DEFAULT_VEHTYPE" speedFactor="1.05" vaporized=""/>
    <tripinfo id="11" depart="58.00" departLane="bottom0A0_0" departPos="5.10" departSpeed="0.00" departDelay="0.00" arrival="357.00" arrivalLane="D2right2_0" arrivalPos="286.40" arrivalSpeed="14.47" duration="299.00" routeLength="2080.28" waitingTime="120.00" waitingCount="5" stopTime="0.00" timeLoss="165.99" rerouteNo="0" devices="tripinfo_11" vType="DEFAULT_VEHTYPE" speedFactor="1.13" vaporized=""/>
    <tripinfo id="49" depart="204.00" departLane="bottom2C0_0" departPos="5.10" departSpeed="0.00" departDelay="0.00" arrival="358.00" arrivalLane="D1right1_0" arrivalPos="286.40" arrivalSpeed="14.13" duration="154.00" routeLength="1179.77" waitingTime="49.00" waitingCount="3" stopTime="0.00" timeLoss="74.92" rerouteNo="0" devices="tripinfo_49" vType="DEFAULT_VEHTYPE" speedFactor="1.08" vaporized=""/>
    <tripinfo id="42" depart="185.00" departLane="top0A3_0" departPos="5.10" departSpeed="0.00" departDelay="0.00" arrival="359.00" arrivalLane="A3top0_0" arrivalPos="286.40" arrivalSpeed="13.29" duration="174.00" routeLength="1745.91" waitingTime="15.00" waitingCount="5" stopTime="0.00" timeLoss="49.35" rerouteNo="0" devices="tripinfo_42" vType="DEFAULT_VEHTYPE" speedFactor="1.03" vaporized=""/>
    <tripinfo id="46" depart="194.00" departLane="top0A3_0" departPos="5.10" departSpeed="0.00" departDelay="0.00" arrival="359.00" arrivalLane="A0bottom0_0" arrivalPos="286.40" arrivalSpeed="13.00" duration="165.00" routeLength="1495.58" waitingTime="34.00" waitingCount="3" stopTime="0.00" timeLoss="56.43" rerouteNo="0" devices="tripinfo_46" vType="DEFAULT_VEHTYPE" speedFactor="0.99" vaporized=""/>
    <tripinfo id="51" depart="209.00" departLane="bottom2C0_0" departPos="5.10" departSpeed="0.00" departDelay="0.00" arrival="359.00" arrivalLane="D1right1_1" arrivalPos="286.40" arrivalSpeed="16.58" duration="150.00" routeLength="1179.77" waitingTime="41.00" waitingCount="3" stopTime="0.00" timeLoss="78.07" rerouteNo="0" devices="tripinfo_51" vType="DEFAULT_VEHTYPE" speedFactor="1.20" vaporized=""/>
    <tripinfo id="29" depart="145.00" departLane="top0A3_0" departPos="5.10" departSpeed="0.00" departDelay="0.00" arrival="363.00" arrivalLane="B0bottom1_0" arrivalPos="286.40" arrivalSpeed="10.77" duration="218.00" routeLength="1782.59" waitingTime="28.00" waitingCount="5" stopTime="0.00" timeLoss="63.02" rerouteNo="0" devices="tripinfo_29" vType="DEFAULT_VEHTYPE" speedFactor="0.83" vaporized=""/>
    <tripinfo id="75" depart="316.00" departLane="bottom0A0_0" departPos="5.10" departSpeed="0.00" departDelay="0.00" arrival="368.00" arrivalLane="A0left0_0" arrivalPos="286.40" arrivalSpeed="13.42" duration="52.00" routeLength="597.55" waitingTime="0.00" waitingCount="0" stopTime="0.00" timeLoss="10.61" rerouteNo="0" devices="tripinfo_75" vType="DEFAULT_VEHTYPE" speedFactor="1.06" vaporized=""/>
    <tripinfo id="34" depart="162.00" departLane="top1B3_0" departPos="5.10" departSpeed="0.00" departDelay="0.00" arrival="377.00" arrivalLane="C0bottom2_0" arrivalPos="286.40" arrivalSpeed="15.40" duration="215.00" routeLength="1782.59" waitingTime="59.00" waitingCount="5" stopTime="0.00" timeLoss="99.06" rerouteNo="0" devices="tripinfo_34" vType="DEFAULT_VEHTYPE" speedFactor="1.12" vaporized=""/>
    <tripinfo id="60" depart="247.00" departLane="bottom0A0_0" departPos="5.10" departSpeed="0.00" departDelay="0.00" arrival="388.00" arrivalLane="D0bottom3_0" arrivalPos="286.40" arrivalSpeed="14.82" duration="141.00" routeLength="1461.60" waitingTime="15.00" waitingCount="3" stopTime="0.00" timeLoss="41.52" rerouteNo="0" devices="tripinfo_60" vType="DEFAULT_VEHTYPE" speedFactor="1.07" vaporized=""/>
    <tripinfo id="44" depart="189.00" departLane="left3A3_0" departPos="5.10" departSpeed="0.00" departDelay="0.00" arrival="392.00" arrivalLane="D3right3_0" arrivalPos="286.40" arrivalSpeed="11.59" duration="203.00" routeLength="1495.58" waitingTime="59.00" waitingCount="3" stopTime="0.00" timeLoss="83.17" rerouteNo="0" devices="tripinfo_44" vType="DEFAULT_VEHTYPE" speedFactor="0.90" vaporized=""/>
    <tripinfo id="21" depart="91.00" departLane="bottom3D0_0" departPos="5.10" departSpeed="0.00" departDelay="0.00" arrival="398.00" arrivalLane="A3top0_0" arrivalPos="286.40" arrivalSpeed="13.78" duration="307.00" routeLength="2380.22" waitingTime="103.00" waitingCount="4" stopTime="0.00" timeLoss="142.26" rerouteNo="0" devices="tripinfo_21" vType="DEFAULT_VEHTYPE" speedFactor="1.05" vaporized=""/>
    <tripinfo id="53" depart="225.00" departLane="left2A2_0" departPos="5.10" departSpeed="0.00" departDelay="0.00" arrival="402.00" arrivalLane="D2right2_0" arrivalPos="286.40" arrivalSpeed="13.61" duration="177.00" routeLength="1495.58" waitingTime="48.00" waitingCount="2" stopTime="0.00" timeLoss="68.11" rerouteNo="0" devices="tripinfo_53" vType="DEFAULT_VEHTYPE" speedFactor="0.99" vaporized=""/>
    <tripinfo id="45" depart="193.00" departLane="right2D2_0" departPos="5.10" departSpeed="0.00" departDelay="0.00" arrival="405.00" arrivalLane="A3top0_0" arrivalPos="286.40" arrivalSpeed="10.97" duration="212.00" routeLength="1780.11" waitingTime="30.00" waitingCount="4" stopTime="0.00" timeLoss="61.23" rerouteNo="0" devices="tripinfo_45" vType="DEFAULT_VEHTYPE" speedFactor="0.86" vaporized=""/>
    <tripinfo id="40" depart="182.00" departLane="top1B3_0" departPos="5.10" departSpeed="0.00" departDelay="0.00" arrival="407.00" arrivalLane="D0right0_0" arrivalPos="286.40" arrivalSpeed="14.62" duration="225.00" routeLength="2095.69" waitingTime="61.00" waitingCount="3" stopTime="0.00" timeLoss="90.89" rerouteNo="0" devices="tripinfo_40" vType="DEFAULT_VEHTYPE" speedFactor="1.13" vaporized=""/>
    <tripinfo id="30" depart="153.00" departLane="top0A3_0" departPos="5.10" departSpeed="0.00" departDelay="0.00" arrival="409.00" arrivalLane="D0right0_0" arrivalPos="286.40" arrivalSpeed="13.98" duration="256.00" routeLength="2395.86" waitingTime="59.00" waitingCount="4" stopTime="0.00" timeLoss="98.58" rerouteNo="0" devices="tripinfo_30" vType="DEFAULT_VEHTYPE" speedFactor="1.10" vaporized=""/>
    <tripinfo id="59" depart="246.00" departLane="bottom3D0_0" departPos="5.10" departSpeed="0.00" departDelay="0.00" arrival="413.00" arrivalLane="C0bottom2_0" arrivalPos="286.40" arrivalSpeed="10.91" duration="167.00" routeLength="894.86" waitingTime="74.00" waitingCount="2" stopTime="0.00" timeLoss="91.66" rerouteNo="0" devices="tripinfo_59" vType="DEFAULT_VEHTYPE" speedFactor="0.87" vaporized=""/>
    <tripinfo id="52" depart="212.00" departLane="left2A2_0" departPos="5.10" departSpeed="0.00" departDelay="0.00" arrival="420.00" arrivalLane="B3top1_0" arrivalPos="286.40" arrivalSpeed="12.75" duration="208.00" routeLength="1195.18" waitingTime="100.00" waitingCount="2" stopTime="0.00" timeLoss="116.49" rerouteNo="0" devices="tripinfo_52" vType="DEFAULT_VEHTYPE" speedFactor="0.95" vaporized=""/>
    <tripinfo id="43" depart="188.00" departLane="left1A1_0" departPos="5.10" departSpeed="0.00" departDelay="0.00" arrival="423.00" arrivalLane="B3top1_0" arrivalPos="286.40" arrivalSpeed="12.14" duration="235.00" routeLength="1495.35" waitingTime="88.00" waitingCount="4" stopTime="0.00" timeLoss="119.31" rerouteNo="0" devices="tripinfo_43" vType="DEFAULT_VEHTYPE" speedFactor="0.94" vaporized=""/>
    <tripinfo id="54" depart="228.00" departLane="left3A3_0" departPos="5.10" departSpeed="0.00" departDelay="0.00" arrival="425.00" arrivalLane="D3top3_0" arrivalPos="286.40" arrivalSpeed="12.36" duration="197.00" routeLength="1498.06" waitingTime="59.00" waitingCount="1" stopTime="0.00" timeLoss="86.53" rerouteNo="0" devices="tripinfo_54" vType="DEFAULT_VEHTYPE" speedFactor="0.98" vaporized=""/>
    <tripinfo id="22" depart="98.00" departLane="top3D3_0" departPos="5.10" departSpeed="0.00" departDelay="0.00" arrival="438.00" arrivalLane="A0left0_0" arrivalPos="286.40" arrivalSpeed="14.22" duration="340.00" routeLength="2380.45" waitingTime="121.00" waitingCount="7" stopTime="0.00" timeLoss="172.49" rerouteNo="0" devices="tripinfo_22" vType="DEFAULT_VEHTYPE" speedFactor="1.03" vaporized=""/>
    <tripinfo id="36" depart="163.00" departLane="top3D3_0" departPos="5.10" departSpeed="0.00" departDelay="0.00" arrival="438.00" arrivalLane="A0bottom0_0" arrivalPos="286.40" arrivalSpeed="13.96" duration="275.00" routeLength="2382.93" waitingTime="80.00" waitingCount="4" stopTime="0.00" timeLoss="114.08" rerouteNo="0" devices="tripinfo_36" vType="DEFAULT_VEHTYPE" speedFactor="1.08" vaporized=""/>
    <tripinfo id="47" depart="198.00" departLane="top1B3_0" departPos="5.10" departSpeed="0.00" departDelay="0.00" arrival="441.00" arrivalLane="A0left0_0" arrivalPos="286.40" arrivalSpeed="13.02" duration="243.00" routeLength="1780.11" waitingTime="77.00" waitingCount="4" stopTime="0.00" timeLoss="112.01" rerouteNo="0" devices="tripinfo_47" vType="DEFAULT_VEHTYPE" speedFactor="0.99" vaporized=""/>
    <tripinfo id="77" depart="327.00" departLane="bottom0A0_0" departPos="5.10" departSpeed="0.00" departDelay="0.00" arrival="442.00" arrivalLane="C0bottom2_0" arrivalPos="286.40" arrivalSpeed="10.98" duration="115.00" routeLength="1161.43" waitingTime="1.00" waitingCount="1" stopTime="0.00" timeLoss="14.99" rerouteNo="0" devices="tripinfo_77" vType="DEFAULT_VEHTYPE" speedFactor="0.85" vaporized=""/>
    <tripinfo id="69" depart="287.00" departLane="bottom1B0_0" departPos="5.10" departSpeed="0.00" departDelay="0.00" arrival="443.00" arrivalLane="A2left2_0" arrivalPos="286.40" arrivalSpeed="13.30" duration="156.00" routeLength="1495.35" waitingTime="19.00" waitingCount="2" stopTime="0.00" timeLoss="44.08" rerouteNo="0" devices="tripinfo_69" vType="DEFAULT_VEHTYPE" speedFactor="0.97" vaporized=""/>
    <tripinfo id="72" depart="305.00" departLane="bottom3D0_0" departPos="5.10" departSpeed="0.00" departDelay="0.00" arrival="450.00" arrivalLane="D2right2_0" arrivalPos="286.40" arrivalSpeed="12.67" duration="145.00" routeLength="1177.07" waitingTime="32.00" waitingCount="2" stopTime="0.00" timeLoss="54.18" rerouteNo="0" devices="tripinfo_72" vType="DEFAULT_VEHTYPE" speedFactor="0.94" vaporized=""/>
    <tripinfo id="38" depart="179.00" departLane="bottom0A0_0" departPos="5.10" departSpeed="0.00" departDelay="0.00" arrival="470.00" arrivalLane="D3right3_1" arrivalPos="286.40" arrivalSpeed="15.69" duration="291.00" routeLength="2380.45" waitingTime="85.00" waitingCount="4" stopTime="0.00" timeLoss="141.03" rerouteNo="0" devices="tripinfo_38" vType="DEFAULT_VEHTYPE" speedFactor="1.15" vaporized=""/>
    <tripinfo id="58" depart="244.00" departLane="right3D3_0" departPos="5.10" departSpeed="0.00" departDelay="0.00" arrival="470.00" arrivalLane="D3right3_0" arrivalPos="286.40" arrivalSpeed="13.40" duration="226.00" routeLength="1745.91" waitingTime="60.00" waitingCount="4" stopTime="0.00" timeLoss="93.04" rerouteNo="0" devices="tripinfo_58" vType="DEFAULT_VEHTYPE" speedFactor="0.97" vaporized=""/>
    <tripinfo id="62" depart="259.00" departLane="left3A3_0" departPos="5.10" departSpeed="0.00" departDelay="0.00" arrival="474.00" arrivalLane="D3right3_0" arrivalPos="286.40" arrivalSpeed="11.90" duration="215.00" routeLength="1495.58" waitingTime="61.00" waitingCount="4" stopTime="0.00" timeLoss="92.92" rerouteNo="0" devices="tripinfo_62" vType="DEFAULT_VEHTYPE" speedFactor="0.89" vaporized=""/>
    <tripinfo id="67" depart="281.00" departLane="top1B3_0" departPos="5.10" departSpeed="0.00" departDelay="0.00" arrival="490.00" arrivalLane="B0bottom1_0" arrivalPos="286.40" arrivalSpeed="12.77" duration="209.00" routeLength="1495.58" waitingTime="79.00" waitingCount="2" stopTime="0.00" timeLoss="98.56" rerouteNo="0" devices="tripinfo_67" vType="DEFAULT_VEHTYPE" speedFactor="0.98" vaporized=""/>
    <tripinfo id="48" depart="199.00" departLane="left3A3_0" departPos="5.10" departSpeed="0.00" departDelay="0.00" arrival="492.00" arrivalLane="C0bottom2_0" arrivalPos="286.40" arrivalSpeed="11.38" duration="293.00" routeLength="2080.28" waitingTime="88.00" waitingCount="4" stopTime="0.00" timeLoss="124.79" rerouteNo="0" devices="tripinfo_48" vType="DEFAULT_VEHTYPE" speedFactor="0.90" vaporized=""/>
    <tripinfo id="66" depart="281.00" departLane="right2D2_0" departPos="5.10" departSpeed="0.00" departDelay="0.00" arrival="494.00" arrivalLane="A2left2_0" arrivalPos="286.40" arrivalSpeed="10.48" duration="213.00" routeLength="1495.58" waitingTime="50.00" waitingCount="3" stopTime="0.00" timeLoss="75.95" rerouteNo="0" devices="tripinfo_66" vType="DEFAULT_VEHTYPE" speedFactor="0.79" vaporized=""/>
    <tripinfo id="73" depart="307.00" departLane="right2D2_0" departPos="5.10" departSpeed="0.00" departDelay="0.00" arrival="500.00" arrivalLane="A3left3_0" arrivalPos="286.40" arrivalSpeed="13.09" duration="193.00" routeLength="1782.72" waitingTime="30.00" waitingCount="3" stopTime="0.00" timeLoss="56.39" rerouteNo="0" devices="tripinfo_73" vType="DEFAULT_VEHTYPE" speedFactor="0.95" vaporized=""/>
    <tripinfo id="76" depart="323.00" departLane="bottom1B0_0" departPos="5.10" departSpeed="0.00" departDelay="0.00" arrival="500.00" arrivalLane="A3left3_1" arrivalPos="286.40" arrivalSpeed="13.57" duration="177.00" routeLength="1795.52" waitingTime="25.00" waitingCount="2" stopTime="0.00" timeLoss="53.11" rerouteNo="0" devices="tripinfo_76" vType="DEFAULT_VEHTYPE" speedFactor="1.05" vaporized=""/>
    <tripinfo id="55" depart="229.00" departLane="left2A2_0" departPos="5.10" departSpeed="0.00" departDelay="0.00" arrival="503.00" arrivalLane="D3right3_0" arrivalPos="286.40" arrivalSpeed="10.82" duration="274.00" routeLength="1782.59" waitingTime="92.00" waitingCount="4" stopTime="0.00" timeLoss="124.98" rerouteNo="0" devices="tripinfo_55" vType="DEFAULT_VEHTYPE" speedFactor="0.87" vaporized=""/>